# vtk DataFile Version 1.0
Cube
ASCII

DATASET POLYDATA
POINTS 11 float
13.392176 9.423600 18.031381
13.496956 8.372146 19.110060
13.016652 6.999799 18.650248
13.508244 11.294016 17.775430
12.944808 8.731476 19.992021
14.554384 8.339251 19.421311
13.579244 6.665779 17.768827
11.953662 7.026167 18.372811
13.147032 6.258654 19.448899
13.571857 10.682727 18.538306
13.186685 9.221790 16.846528
LINES 10 30
2 0 10
2 0 9
2 0 1
2 1 4
2 1 5
2 1 2
2 2 8
2 2 6
2 2 7
2 3 9
POINT_DATA 11
SCALARS my_scalars float
LOOKUP_TABLE default
1.7
1.7
1.7
1.09
1.09
1.09
1.09
1.09
1.09
1.52
1.52
VECTORS vectors float
0.3125 0 0
0.3125 0 0
0.3125 0 0
0.25 0 0
0.25 0 0
0.25 0 0
0.25 0 0
0.25 0 0
0.25 0 0
0.03125 0 0
0.03125 0 0
