# vtk DataFile Version 1.0
Cube
ASCII

DATASET POLYDATA
POINTS 44 float
10.709504 -0.402811 0.441187
9.271274 -0.745337 0.010176
11.089340 1.050474 0.780724
10.948227 2.066178 -0.368203
10.867999 3.544873 0.054437
10.862404 4.583980 -1.082148
10.666704 6.014642 -0.546884
9.095091 -2.274246 -0.044583
9.926475 -3.012017 -1.110460
9.500356 -4.489155 -1.200391
8.836063 -3.017165 1.279265
10.709504 -0.402811 40.557187
9.271274 -0.745337 40.126176
11.089340 1.050474 40.896724
10.948227 2.066178 39.747797
10.867999 3.544873 40.170437
10.862404 4.583980 39.033852
10.666704 6.014642 39.569116
9.095091 -2.274246 40.071417
9.926475 -3.012017 39.005540
9.500356 -4.489155 38.915609
8.836063 -3.017165 41.395265
10.709504 59.279189 0.441187
9.271274 58.936663 0.010176
11.089340 60.732474 0.780724
10.948227 61.748178 -0.368203
10.867999 63.226873 0.054437
10.862404 64.265980 -1.082148
10.666704 65.696642 -0.546884
9.095091 57.407754 -0.044583
9.926475 56.669983 -1.110460
9.500356 55.192845 -1.200391
8.836063 56.664835 1.279265
10.709504 59.279189 40.557187
9.271274 58.936663 40.126176
11.089340 60.732474 40.896724
10.948227 61.748178 39.747797
10.867999 63.226873 40.170437
10.862404 64.265980 39.033852
10.666704 65.696642 39.569116
9.095091 57.407754 40.071417
9.926475 56.669983 39.005540
9.500356 55.192845 38.915609
8.836063 56.664835 41.395265
LINES 40 120
2 1 0
2 2 0
2 3 2
2 4 3
2 5 4
2 6 5
2 7 1
2 8 7
2 9 8
2 10 7
2 12 11
2 13 11
2 14 13
2 15 14
2 16 15
2 17 16
2 18 12
2 19 18
2 20 19
2 21 18
2 23 22
2 24 22
2 25 24
2 26 25
2 27 26
2 28 27
2 29 23
2 30 29
2 31 30
2 32 29
2 34 33
2 35 33
2 36 35
2 37 36
2 38 37
2 39 38
2 40 34
2 41 40
2 42 41
2 43 40
POINT_DATA 44
SCALARS my_scalars float
LOOKUP_TABLE default
1.7
1.7
1.7
1.7
1.7
1.7
1.7
1.7
1.7
1.7
1.7
1.7
1.7
1.7
1.7
1.7
1.7
1.7
1.7
1.7
1.7
1.7
1.7
1.7
1.7
1.7
1.7
1.7
1.7
1.7
1.7
1.7
1.7
1.7
1.7
1.7
1.7
1.7
1.7
1.7
1.7
1.7
1.7
1.7
VECTORS vectors float
0.3125 0 0
0.3125 0 0
0.3125 0 0
0.3125 0 0
0.3125 0 0
0.3125 0 0
0.3125 0 0
0.3125 0 0
0.3125 0 0
0.3125 0 0
0.3125 0 0
0.3125 0 0
0.3125 0 0
0.3125 0 0
0.3125 0 0
0.3125 0 0
0.3125 0 0
0.3125 0 0
0.3125 0 0
0.3125 0 0
0.3125 0 0
0.3125 0 0
0.3125 0 0
0.3125 0 0
0.3125 0 0
0.3125 0 0
0.3125 0 0
0.3125 0 0
0.3125 0 0
0.3125 0 0
0.3125 0 0
0.3125 0 0
0.3125 0 0
0.3125 0 0
0.3125 0 0
0.3125 0 0
0.3125 0 0
0.3125 0 0
0.3125 0 0
0.3125 0 0
0.3125 0 0
0.3125 0 0
0.3125 0 0
0.3125 0 0
