Compiler and run-time data
===========================================================================
RASPA 2.0.50
Compiled as a 64-bits application
Compiler: gcc 12.3.0
Compile Date = Jul 13 2024, Compile Time = 20:27:09

Fri Sep 13 11:41:58 2024
Simulation started on Friday, September 13.
The start time was 11:41 AM.

Hostname:    sr13
OS type:     Linux on x86_64
OS release:  4.18.0-477.21.1.el8_8.x86_64
OS version:  #1 SMP Tue Aug 8 21:30:09 UTC 2023

Simulation
===========================================================================
Dimensions: 3
Random number seed: 1726242117
RASPA directory set to: /home/aroy34/.conda/pkgs/raspa2-2.0.50-h678ec8c_0/bin
String appended to output-files: 
Number of cycles: 1000
Number of initializing cycles: 0
Number of equilibration cycles: 0
Print every: 1
Triclinic boundary condition applied
Timestep: 0.000500
	Degrees of freedom:                        6
	Translational Degrees of freedom:          3
	Rotational Degrees of freedom:             3
	Degrees of freedom Framework:              0


Mutual consistent basic set of units:
======================================
Unit of temperature: Kelvin
Unit of length:      1e-10 [m]
Unit of time:        1e-12 [s]
Unit of mass:        1.66054e-27 [kg]
Unit of charge:      1.60218e-19 [C/particle]

Derived units and their conversion factors:
===========================================
Unit of energy:              1.66054e-23 [J]
Unit of force:               1.66054e-13 [N]
Unit of pressure:            1.66054e+07 [Pa]
Unit of velocity:            100 [m/s]
Unit of acceleration:        1e-08 [m^2/s]
Unit of diffusion:           1e-08 [m^2/s]
Unit of dipole moment:       1.60218e-29 [C.m]
Unit of electric potential:  0.000103643 [V]
Unit of electric field:      1.03643e+06 [V]
Unit of polarizability:      1.54587e-35 [-]
Unit of Coulomb potential:   167101.0800066561  [K]
Unit of dielectric constant: 0.0000154587       [s^2 C^2/(kg m^3)]
Unit of wave vectors:        5.3088374589       [cm^1]
Boltzmann constant:          0.8314464919       [-]

Internal conversion factors:
===========================================
Energy to Kelvin:                                    1.2027242847
FH correction factor                                 2.0211930949
Heat capacity conversion factor:                    10.0000088723
From Debye to internal units:                        4.8032067991
Isothermal compressibility conversion factor:        0.0000000602

Energy conversion factors:
===========================================
From mdyne/A to kcal/mol/A^2:           143.933
From mdyne/A to kj/mol/A^2:             602.214
From mdyne/A to K/A^2:                  72429.7
From mdyne A/rad^2 to kcal/mol/deg^2:   0.0438444


Properties computed
===========================================================================
Movies: yes
	Movie snapshots are appended to file every 1 cycles
Radial Distribution Function: no
Number of molecules GCMC histogram: no
Histogram of the molecule positions: no
Free energy profiles: no
Pore Size Distribution Function: no
End-to-end distance: no
Histogram of the energy of the system: yes
	Energy histograms are written to file every 1 cycles
	Lower limit of the energy histogram: -10000000.000000
	Upper limit of the energy histogram: 0.000000
	Size of the energy histogram: 10000000
Compute thermodynamic factors: no
Framework spacing histograms: no
Residence times histograms: no
Distance histograms: no
Bend Angle histograms: no
Dihedral angle histograms: no
Angle between planes histograms: no
Molecule properties: no
Infra-red spectra: no
Mean-squared displacement using modified order-N algorithm: no
Velocity-autocorrelation function modified order-N algorithm: no
Rotational velocity-autocorrelation function modified order-N algorithm: no
Molecular orientation-autocorrelation function modified order-N algorithm: no
Bond orientation-autocorrelation function modified order-N algorithm: no
Mean-squared displacement (conventional algorithm): no
Velocity-autocorrelation function (conventional algorithm): no
3D density grid for adsorbates: yes
	3D density grids for adsorbates are written to file every 1 cycles
	3D density grids consisting of 150 x 150 x 150 points
	3D density grid made for the full simulation-cell
	3D density grid averaged over all unit cells
Compute cation an/or adsorption sites: no
dcTST snapshots: no
Compute pressure and stress: no


VTK
===========================================================================
VTK fractional-range position framework atoms: [-0.001000,1.001000] [-0.001000,1.001000] [-0.001000,1.001000]
VTK fractional-range position framework bonds: [-0.151000,1.151000] [-0.151000,1.151000] [-0.151000,1.151000]
VTK fractional-range com-position adsorbate molecules: [-0.101000,1.101000] [-0.101000,1.101000] [-0.101000,1.101000]
VTK fractional-range com-position cation molecules: [-0.101000,1.101000] [-0.101000,1.101000] [-0.101000,1.101000]
	3D free energy grid made for the full simulation-cell


Thermo/Baro-stat NHC parameters
===========================================================================
External temperature: 350 [K]
Beta: 0.00343635 [energy unit]
External Pressure: 0 [Pa]


Thermostat chain-length: 3
Timescale parameter for thermostat: 0.150000 [ps]
Barostat chain-length:   3
Timescale parameter for barostat:   0.150000 [ps]

Number of Yoshida-Suzuki decomposition steps: 5
Number of respa steps: 5


Method and settings for electrostatics
===============================================================================
Dielectric constant of the medium : 1.000000
Charge from charge-equilibration: no
Ewald summation is used (exact solution of a periodic system)
Relative precision                : 1e-06
Alpha convergence parameter       : 0.265058
kvec (x,y,z)                      : 8 11 8


CFC-RXMC parameters
===========================================================================
Number of reactions: 0


Rattle parameters
===========================================================================
Distance constraint type: r^2-r^2_0
Bend angle constraint type: theta-theta_0
Dihedral angle constraint type: phi-phi_0
Inversion-bend angle constraint type: chi-chi_0
Out-of-plane distance constraint type: r-r_0


Spectra parameters
===========================================================================
Compute normal modes: no


Minimization parameters
===========================================================================
Generalized coordinates are: Cartesian center-of-mass, elements of the orientational matrix p1,p2,p3 and strain
Potential derivatives are evaluated: analytically
Translation of the system is removed from the generalized Hessian: no
Rotation of the system is removed from the generalized Hessian: no
Maximum step-length: 0.3
Convergence factor: 1
Maximum number of minimization steps: 10000
Use gradients in the line-minimizations: yes
RMS gradient tolerance: 1e-06
Maximum gradient tolerance: 1e-06

Distance constraints: 0
Angle constraints: 0
Dihedral constraints: 0

Improper dihedral constraints: 0

Inversion-bend constraints: 0

Out-of-plane constraints: 0

Harmonic distance constraints: 0
Harmonic angle constraints: 0
Harmonic dihedral constraints: 0

Dihedral mid-point measurements: 0

All framework atoms are fixed

Fixed adsorbate atoms:  
Fixed adsorbate groups (center-of-mass):  
Fixed adsorbate groups (orientation):  

Fixed cation atoms:  
Fixed cation groups (center-of-mass):  
Fixed cation groups (orientation):  


dcTST parameters
===========================================================================
Free energy profiles computed: no
Free energy profiles written every 5000 cycles
Free energy mapping: mapped to a,b,c-coordinates
BarrierPosition:       0.0000000000       0.0000000000       0.0000000000
BarrierNormal:         0.0000000000       0.0000000000       0.0000000000
Start with a molecule on top of the barrier: no
Maximum distance to barrier (e.g. distance to minumum free energy):       0.0000000000 [A]
Maximum trajectory time:      10.0000000000 [ps]
Each configuration is used with 5 different initial velocities


Cbmc parameters
===========================================================================
Biasing method: using only the VDW part
Number of trial positions:                                       10
Number of trial positions (reinsertion):                         10
Number of trial positions (partial reinsertion):                 10
Number of trial positions (identity-change):                     10
Number of trial positions (Gibbs particle transfer):             10
Number of trial positions (insertion/deletion):                  10
Number of trial positions (Widom insertion):                     10
Number of trial positions coupled Torsion-selection:             100
Number of trial positions first bead:                            10
Number of trial positions first bead (reinsertion):              10
Number of trial positions first bead (partial reinsertion):      10
Number of trial positions first bead (identity-change):          10
Number of trial positions first bead (Gibbs particle transfer):  10
Number of trial positions first bead (insertion/deletion):       10
Number of trial positions first bead (Widom insertion):          10
Number of trial moves per open bead:                             150
Target acceptance ratio small-mc scheme:                         0.400000
Energy overlap criteria:                                         1e+07
Minimal Rosenbluth factor:                                       1e-150


Pseudo atoms: 11
===========================================================================
Pseudo Atom[   0] Name UNIT     Oxidation:          Element: H    pdb-name: H    Scat. Types:   1   1 Mass=1.000000000  B-factor:0.000   
                 Charge=1.000000000          Polarization=0.000000000  [A^3] (considered a charged atom and no polarization)  Interactions:  no
                 Anisotropic factor:    0.000 [-] (Absolute), Radius:    1.000 [A], Framework-atom:  no
Pseudo Atom[   1] Name C        Oxidation: +0       Element: C    pdb-name: C    Scat. Types:   7   6 Mass=12.011000000 B-factor:1.000   
                 Charge=0.200000000          Polarization=0.000000000  [A^3] (considered a charged atom and no polarization)  Interactions: yes
                 Anisotropic factor:    0.000 [-] (Relative), Radius:    1.000 [A], Framework-atom:  no
Pseudo Atom[   2] Name H_Z1     Oxidation: +0       Element: H    pdb-name: H    Scat. Types:   1   1 Mass=1.000000000  B-factor:1.000   
                 Charge=0.200000000          Polarization=0.000000000  [A^3] (considered a charged atom and no polarization)  Interactions: yes
                 Anisotropic factor:    0.000 [-] (Relative), Radius:    1.000 [A], Framework-atom:  no
Pseudo Atom[   3] Name H        Oxidation: +0       Element: H    pdb-name: H    Scat. Types:   1   1 Mass=1.000000000  B-factor:1.000   
                 Charge=0.200000000          Polarization=0.000000000  [A^3] (considered a charged atom and no polarization)  Interactions: yes
                 Anisotropic factor:    0.000 [-] (Relative), Radius:    1.000 [A], Framework-atom:  no
Pseudo Atom[   4] Name O_a      Oxidation: +0       Element: O    pdb-name: O    Scat. Types:   9   8 Mass=15.999000000 B-factor:1.000   
                 Charge=-0.400000000         Polarization=0.000000000  [A^3] (considered a charged atom and no polarization)  Interactions: yes
                 Anisotropic factor:    0.000 [-] (Relative), Radius:    1.000 [A], Framework-atom:  no
Pseudo Atom[   5] Name O_Z0     Oxidation: +0       Element: O    pdb-name: O    Scat. Types:   9   8 Mass=15.999000000 B-factor:1.000   
                 Charge=-0.400000000         Polarization=0.000000000  [A^3] (considered a charged atom and no polarization)  Interactions: yes
                 Anisotropic factor:    0.000 [-] (Relative), Radius:    1.000 [A], Framework-atom:  no
Pseudo Atom[   6] Name Al       Oxidation: +0       Element: Al   pdb-name: Al   Scat. Types:  14  13 Mass=26.982000000 B-factor:1.000   
                 Charge=0.500000000          Polarization=0.000000000  [A^3] (considered a charged atom and no polarization)  Interactions: yes
                 Anisotropic factor:    0.000 [-] (Relative), Radius:    1.000 [A], Framework-atom: yes (charge from pseudo-atoms file)
Pseudo Atom[   7] Name Si       Oxidation: +0       Element: Si   pdb-name: Si   Scat. Types:  15  14 Mass=28.085000000 B-factor:1.000   
                 Charge=1.500000000          Polarization=0.000000000  [A^3] (considered a charged atom and no polarization)  Interactions: yes
                 Anisotropic factor:    0.000 [-] (Relative), Radius:    1.000 [A], Framework-atom: yes (charge from pseudo-atoms file)
Pseudo Atom[   8] Name Z1       Oxidation: +0       Element: O    pdb-name: O    Scat. Types:   9   8 Mass=15.999000000 B-factor:1.000   
                 Charge=-0.750000000         Polarization=0.000000000  [A^3] (considered a charged atom and no polarization)  Interactions: yes
                 Anisotropic factor:    0.000 [-] (Relative), Radius:    1.000 [A], Framework-atom: yes (charge from pseudo-atoms file)
Pseudo Atom[   9] Name O        Oxidation: +0       Element: O    pdb-name: O    Scat. Types:   9   8 Mass=15.999000000 B-factor:1.000   
                 Charge=-0.750000000         Polarization=0.000000000  [A^3] (considered a charged atom and no polarization)  Interactions: yes
                 Anisotropic factor:    0.000 [-] (Relative), Radius:    1.000 [A], Framework-atom: yes (charge from pseudo-atoms file)
Pseudo Atom[  10] Name Z0       Oxidation: +0       Element: H    pdb-name: H    Scat. Types:   1   1 Mass=1.000000000  B-factor:1.000   
                 Charge=0.200000000          Polarization=0.000000000  [A^3] (considered a charged atom and no polarization)  Interactions: yes
                 Anisotropic factor:    0.000 [-] (Relative), Radius:    1.000 [A], Framework-atom: yes (charge from pseudo-atoms file)


Forcefield: 
===========================================================================
Minimal distance: 1
CutOff VDW : 12.000000 (144.000000)
CutOff VDW switching on: 10.800000 (116.640000)
CutOff charge-charge : 12.000000 (144.000000)
CutOff charge-charge switching on: 7.800000 (60.840000)
CutOff charge-bonddipole : 12.000000 (144.000000)
CutOff charge-bondipole switching on: 8.400000 (70.560000)
CutOff bonddipole-bonddipole : 12.000000 (144.000000)
CutOff bonddipole-bondipole switching on: 9.000000 (81.000000)
Polarization is neglected
All potentials are shifted to zero at the Cutoff

No general mixing rule: all cross term specified individualy
0 cross terms are overwritten using the individual mixing rules from the file 'force_field_mixing_rules.def'
and then 19 terms are overwritten using the specific interactions from the file 'force_field.def'

The force field and all the interactions:
      C -      Al [LENNARD_JONES] p_0/k_B:   4.19000 [K], p_1: 4.34000 [A], shift/k_B:   0.00000000 [K], tailcorrection: no
      C -      Si [LENNARD_JONES] p_0/k_B:   4.19000 [K], p_1: 4.34000 [A], shift/k_B:   0.00000000 [K], tailcorrection: no
      C -       O [LENNARD_JONES] p_0/k_B:   6.51000 [K], p_1: 4.84000 [A], shift/k_B:   0.00000000 [K], tailcorrection: no
   H_Z1 -      Al [LENNARD_JONES] p_0/k_B:  43.42000 [K], p_1: 2.66000 [A], shift/k_B:   0.00000000 [K], tailcorrection: no
   H_Z1 -      Si [LENNARD_JONES] p_0/k_B:  10.00000 [K], p_1: 2.75000 [A], shift/k_B:   0.00000000 [K], tailcorrection: no
   H_Z1 -      Z1 [LENNARD_JONES] p_0/k_B: 2000000.00000 [K], p_1: 1.50000 [A], shift/k_B:   0.00000000 [K], tailcorrection: no
   H_Z1 -       O [LENNARD_JONES] p_0/k_B:  10.00000 [K], p_1: 2.75000 [A], shift/k_B:   0.00000000 [K], tailcorrection: no
   H_Z1 -      Z0 [LENNARD_JONES] p_0/k_B:  10.00000 [K], p_1: 2.75000 [A], shift/k_B:   0.00000000 [K], tailcorrection: no
      H -      Al [LENNARD_JONES] p_0/k_B:  10.00000 [K], p_1: 2.75000 [A], shift/k_B:   0.00000000 [K], tailcorrection: no
      H -      Si [LENNARD_JONES] p_0/k_B:  43.42000 [K], p_1: 2.66000 [A], shift/k_B:   0.00000000 [K], tailcorrection: no
      H -       O [LENNARD_JONES] p_0/k_B:  67.38000 [K], p_1: 3.16000 [A], shift/k_B:   0.00000000 [K], tailcorrection: no
    O_a -      Al [LENNARD_JONES] p_0/k_B:  10.00000 [K], p_1: 2.75000 [A], shift/k_B:   0.00000000 [K], tailcorrection: no
    O_a -      Si [LENNARD_JONES] p_0/k_B:  43.42000 [K], p_1: 2.66000 [A], shift/k_B:   0.00000000 [K], tailcorrection: no
    O_a -       O [LENNARD_JONES] p_0/k_B:  67.38000 [K], p_1: 3.16000 [A], shift/k_B:   0.00000000 [K], tailcorrection: no
   O_Z0 -      Al [LENNARD_JONES] p_0/k_B:  43.42000 [K], p_1: 2.66000 [A], shift/k_B:   0.00000000 [K], tailcorrection: no
   O_Z0 -      Si [LENNARD_JONES] p_0/k_B:  10.00000 [K], p_1: 2.75000 [A], shift/k_B:   0.00000000 [K], tailcorrection: no
   O_Z0 -      Z1 [LENNARD_JONES] p_0/k_B:  10.00000 [K], p_1: 2.75000 [A], shift/k_B:   0.00000000 [K], tailcorrection: no
   O_Z0 -       O [LENNARD_JONES] p_0/k_B:  10.00000 [K], p_1: 2.75000 [A], shift/k_B:   0.00000000 [K], tailcorrection: no
   O_Z0 -      Z0 [LENNARD_JONES] p_0/k_B: 2000000.00000 [K], p_1: 1.50000 [A], shift/k_B:   0.00000000 [K], tailcorrection: no


MoleculeDefinitions:
===========================================================================
Component 0 [propionic_acid] (Adsorbate molecule)

	MoleculeDefinitions: local
	Component contains (at least some) atoms which are charged
	Component contains no atoms with point dipoles (polarization)
	Component has a net charge of 1.000000

	Ideal chain Rosenbluth weight: 1
	Ideal chain total energy: 0.000000

	Critical temparure [K]: 0.000000
	Critical pressure [Pa]: 0.000000
	Acentric factor [-]: 0.000000

	RXMC partition factor ln(q/V) [ln(A^(-3))]:       0.0000000000

	Vapour=stable, Liquid=metastable

	MolFraction:           1.0000000000 [-]
	Compressibility:       0.0000000000 [-]

	Density of the bulk fluid phase:       0.0000000000 [kg/m^3]


	Amount of excess molecules:       0.0000000000 [-]

	Conversion factor molecules/unit cell -> mol/kg:       0.4623454321 [-]
	Conversion factor molecules/unit cell -> mg/g:      34.2278946870 [-]
	Conversion factor molecules/unit cell -> cm^3 STP/gr:      10.3629993031 [-]
	Conversion factor molecules/unit cell -> cm^3 STP/cm^3:      15.1083091255 [-]
	Conversion factor mol/kg -> cm^3 STP/gr:      22.4139757476 [-]
	Conversion factor mol/kg -> cm^3 STP/cm^3:      32.6775351828 [-]

	Partial pressure: -16605402.00000000000000 [Pa]
	                    -124540.51499999999942 [Torr]
	                       -166.05402000000001 [bar]
	                       -163.88257586972614 [atm]

	Fugacity coefficient:      -1.0000000000 [-]

	Partial fugacity:  16605402.00000000000000 [Pa]
	                     124540.51499999999942 [Torr]
	                        166.05402000000001 [bar]
	                        163.88257586972614 [atm]

	Molecule contains 11 number of atoms
		atom:    0  is of type:    1 [         C] (group: 0)
		atom:    1  is of type:    1 [         C] (group: 0)
		atom:    2  is of type:    1 [         C] (group: 0)
		atom:    3  is of type:    2 [      H_Z1] (group: 0)
		atom:    4  is of type:    3 [         H] (group: 0)
		atom:    5  is of type:    3 [         H] (group: 0)
		atom:    6  is of type:    3 [         H] (group: 0)
		atom:    7  is of type:    3 [         H] (group: 0)
		atom:    8  is of type:    3 [         H] (group: 0)
		atom:    9  is of type:    4 [       O_a] (group: 0)
		atom:   10  is of type:    5 [      O_Z0] (group: 0)

	Molecule contains 0 chirality centers

	Molecule contains 1 number of groups

		group: 0 containing: 11 elements
		-------------------------------------------------
		the group is rigid and nonlinear
		Mass: 74.031000 [a.u.]
		Mass: 4.158431 [kg/m^3]

		Rotational Degrees of freedom: 3
		Diagonalized inertia vector:     177.0702832399
		                                 133.3654058524
		                                  50.7715429176
		number of atoms: 11
			element: 0 atom: 0 [         C] Charge:  0.200000 Anisotropy: 0.000000 Position: -0.021416 -0.080842  0.481872 Connectivity: 3 (1 9 10 )
			element: 1 atom: 1 [         C] Charge:  0.200000 Anisotropy: 0.000000 Position: -0.110523  0.758653 -0.770082 Connectivity: 4 (0 2 4 5 )
			element: 2 atom: 2 [         C] Charge:  0.200000 Anisotropy: 0.000000 Position:  0.086781 -0.054025 -2.045261 Connectivity: 4 (1 6 7 8 )
			element: 3 atom: 3 [      H_Z1] Charge:  0.200000 Anisotropy: 0.000000 Position:  0.099147  0.079666  2.362601 Connectivity: 1 (9 )
			element: 4 atom: 4 [         H] Charge:  0.200000 Anisotropy: 0.000000 Position:  0.618120  1.579285 -0.683570 Connectivity: 1 (1 )
			element: 5 atom: 5 [         H] Charge:  0.200000 Anisotropy: 0.000000 Position: -1.100277  1.244817 -0.757941 Connectivity: 1 (1 )
			element: 6 atom: 6 [         H] Charge:  0.200000 Anisotropy: 0.000000 Position: -0.648280 -0.867010 -2.106272 Connectivity: 1 (2 )
			element: 7 atom: 7 [         H] Charge:  0.200000 Anisotropy: 0.000000 Position:  1.086251 -0.510048 -2.072034 Connectivity: 1 (2 )
			element: 8 atom: 8 [         H] Charge:  0.200000 Anisotropy: 0.000000 Position: -0.025319  0.584903 -2.930327 Connectivity: 1 (2 )
			element: 9 atom: 9 [       O_a] Charge: -0.400000 Anisotropy: 0.000000 Position:  0.065736  0.698720  1.604078 Connectivity: 2 (0 3 )
			element: 10 atom: 10 [      O_Z0] Charge: -0.400000 Anisotropy: 0.000000 Position: -0.033687 -1.299001  0.534484 Connectivity: 1 (0 )
		number of permanent dipoles: 0
		number of polarizabilities: 0

		Dipole:           8.0874099764 [D]
		Quadrupole:      -8.5193432696     -11.7508332469      20.2701765165 [D Angstrom]
		Quadrupole tensor [D Angstrom]
				      -8.8587858887      -0.9489141191      -0.6383767258
				      -0.9489141191     -11.1280828711      -2.9273010972
				      -0.6383767258      -2.9273010972      19.9868687598

	Starting bead for growth               : 0

	Degrees of freedom                     : 0
	Translational degrees of freedom       : 0
	Rotational degrees of freedom          : 0
	Vibrational degrees of freedom         : 0
	Constraint degrees of freedom          : 0

	Number of atoms                        : 11

	Number of constraint bonds             : 0
	Number of constraint bends             : 0
	Number of constraint inversion bends   : 0
	Number of constraint torsions          : 0
	Number of constraint improper torsions : 0
	Number of constraint improper torsions : 0

	Number of bonds                        : 10
	Number of Urey-Bradleys                : 0
	Number of bends                        : 0
	Number of inversion bends              : 0
	Number of torsions                     : 0
	Number of improper torsions            : 0
	Number of improper torsions            : 0

	Number of bond/bond cross terms        : 0
	Number of bond/bend cross terms        : 0
	Number of bend/bend cross terms        : 0
	Number of stretch/torsion cross terms  : 0
	Number of bend/torsion cross terms     : 0

	Number of charges                      : 11
	Number of bond-dipoles                 : 0

	Number of intra Van der Waals                             : 0
	Number of intra charge-charge Coulomb                     : 0
	Number of intra charge-bonddipole Coulomb                 : 0
	Number of intra bonddipole-bonddipole Coulomb             : 0

	Number of excluded intra charge-charge Coulomb                     : 55
	Number of excluded intra charge-bonddipole Coulomb                 : 0
	Number of excluded intra bonddipole-bonddipole Coulomb             : 0

	Number of cbmc-config moves                               : 0

	Particle Moves:             
		ProbabilityTranslationMove:                  40.000000
			TranslationDirection:      XYZ
		Percentage of random translation moves:            0.000000
		Percentage of rotation moves:                      40.000000
		Percentage of random rotation moves:               0.000000
		Percentage of partial reinsertion moves:           0.000000
		Percentage of reinsertion moves:                   20.000000
		Percentage of reinsertion-in-place moves:          0.000000
		Percentage of reinsertion-in-plane moves:          0.000000
		Percentage of identity-change moves:               0.000000
		Percentage of swap (insert/delete) moves:          0.000000
		Percentage of CF swap lambda moves:                0.000000
		Percentage of CB/CFMC swap lambda moves:           0.000000
		Percentage of Widom insertion moves:               0.000000
		Percentage of CF-Widom insertion moves:            0.000000
		Percentage of Gibbs Widom insertion moves:         0.000000
		Percentage of surface-area moves:                  0.000000
		Percentage of Gibbs particle-transfer moves:       0.000000
		Percentage of Gibbs identity-change moves:         0.000000
		Percentage of CF Gibbs lambda-transfer moves:      0.000000
		Percentage of CB/CFMC Gibbs lambda-transfer moves: 0.000000
		Percentage of exchange frac./int. particle moves:  0.000000
		Percentage of fractional mol. to other box moves:  0.000000
		Percentage of lambda-change moves:                 0.000000
		Percentage of fractional to integer moves:         0.000000

	System Moves:
		Percentage of parallel-tempering moves:            0.000000
		Percentage of hyper-parallel-tempering moves:      0.000000
		Percentage of parallel-mol-fraction moves:         0.000000
			   Component A: 0 B: 1
		Percentage of chiral inversion moves:              0.000000
		Percentage of Hybrid-NVE moves:                    0.000000
		Percentage of Hybrid-NPH moves:                    0.000000
		Percentage of Hybrid-NPHPR moves:                  0.000000
		Percentage of volume-change moves:                 0.000000
		Percentage of box-shape-change moves:              0.000000
		Percentage of Gibbs volume-change moves:           0.000000
		Percentage of framework-change moves:              0.000000
		Percentage of framework-shift moves:               0.000000
		Percentage of reactive MC moves:                   0.000000

	Moves are restricted: No
	No biased sampling used for this component

	Number of Bonds: 10
	--------------------------------------------
	Bond interaction 0: A=0 B=10 Type:RIGID_BOND
		r_0=1.2193563876       [A]
	Bond interaction 1: A=0 B=9 Type:RIGID_BOND
		r_0=1.3691822377       [A]
	Bond interaction 2: A=0 B=1 Type:RIGID_BOND
		r_0=1.5099940397       [A]
	Bond interaction 3: A=1 B=4 Type:RIGID_BOND
		r_0=1.1008365001       [A]
	Bond interaction 4: A=1 B=5 Type:RIGID_BOND
		r_0=1.1027760425       [A]
	Bond interaction 5: A=1 B=2 Type:RIGID_BOND
		r_0=1.5249445892       [A]
	Bond interaction 6: A=2 B=8 Type:RIGID_BOND
		r_0=1.0973317639       [A]
	Bond interaction 7: A=2 B=6 Type:RIGID_BOND
		r_0=1.0977162657       [A]
	Bond interaction 8: A=2 B=7 Type:RIGID_BOND
		r_0=1.0989149194       [A]
	Bond interaction 9: A=3 B=9 Type:RIGID_BOND
		r_0=0.9796433024       [A]


	number of identity-config changes: 1
	--------------------------------------------
	nr fixed 1: 0 

	Number of pockets blocked in a unitcell: 0
		Pockets are NOT blocked for this component



Framework Status
===========================================================================
Lowenstein's rule obeyed by framework
	Framework is modelled as: rigid

	Number of charges:                               1308
	Number of bonddipoles:                           0


System Properties
===========================================================================
Unit cell size: 13.825800 13.825800 14.881300
Cell angles (radians)  alpha: 1.570796 beta: 1.570796 gamma: 2.094395
Cell angles (degrees)  alpha: 90.000000 beta: 90.000000 gamma: 120.000000
Number of unitcells [a]: 2
Number of unitcells [b]: 3
Number of unitcells [c]: 2

TRICLINIC Boundary conditions: alpha!=90 or beta!=90 or gamma!=90

Cartesian axis A is collinear with crystallographic axis a
Cartesian axis B is collinear with (axb)xA
Cartesian axis C is collinear with (axb)

lengths of cell vectors:
 27.65160  41.47740  29.76260
cosines of cell angles:
  0.00000   0.00000  -0.50000
perpendicular cell widths:
 23.94699  35.92048  29.76260
volume of the cell: 29561.964431248023 (A^3)

Orthogonalization matrix Box
Transforms fractional coordinates abc into orthonormal Cartesian coordinates xyz
Deorthogonalization matrix InverseBox
Transforms orthonormal Cartesian coordinates xyz into fractional coordinates xyz

Box[0]:
	   27.651600000000   -20.738700000000     0.000000000000
	    0.000000000000    35.920482082929     0.000000000000
	    0.000000000000     0.000000000000    29.762600000000

Inverse box[0]:
	    0.036164272592     0.020879452516    -0.000000000000
	    0.000000000000     0.027839270021    -0.000000000000
	    0.000000000000    -0.000000000000     0.033599215122


Unitcell box[0]:
	   13.825800000000    -6.912900000000     0.000000000000
	    0.000000000000    11.973494027643     0.000000000000
	    0.000000000000     0.000000000000    14.881300000000

Unitcell inverse box[0]:
	    0.072328545184     0.041758905032    -0.000000000000
	    0.000000000000     0.083517810064    -0.000000000000
	    0.000000000000    -0.000000000000     0.067198430245

lengths of cell vectors (inverse box):
  0.03616   0.03480   0.03360
cosines of cell angles (inverse box):
 -0.00000  -0.00000   0.60000
perpendicular cell widths (inverse):
  0.02893   0.02784   0.03360
volume of the cell: 29561.964431248023 (A^3)

No replicas are used
Framework is simulated as 'rigid'
Number of framework atoms: 1308
Number of framework atoms in the unit cell: 109
Framework Mass: 25954.619999999599 [g/mol]
Framework Density:  1457.908920346219 [kg/m^3]    0.6859139045274 [cm^3/g]
Helium void fraction:    0.00000000
Available pore volume:    0.00000000 [A^3]    0.00000000 [cm^3/g]
Conversion factor from molecule/unit cell -> kmol/m^3: 0.0561715, kmol/m^3 accesible pore volume: inf

Number Of Frameworks (per system): 1
----------------------------------------------------------------------
Framework name: al-cha
Space group: 1
	Identifier: 1
	short international Hermann-Mauguin symbol: P 1
	long international Hermann-Mauguin symbol: P 1
	Hall symbol: P 1
	Number of lattice translations: 1 [ (0,0,0) ]
	acentric/centric: acentric
	chiral: no
	enantiomorphic: no
	number of operators: 1
		'x,y,z'
Framework is simulated as 'rigid'
Shift: 0.000000 0.000000 0.000000
Number of framework atoms: 1308
Number of asymmetric atoms: 109
Number of free framework atoms: 0
Number of fixed framework atoms: 1308
Number of framework atoms in the unit cell: 109
Framework Mass: 25954.619999999599 [g/mol]
Framework Density:  1457.908920346219 [kg/m^3]
Framework has net charge: -9.600000
         largest charge : 1.500000
         smallest charge: -0.750000

Using FULL Host-guest interaction calculation (for testing purposes)

Current Atom Status
===========================================================================
Number of framework atoms        : 1308
Number of cations molecules      : 0
Number of adsorbate molecules    : 1
Component    0 :    1 molecules
Pseudo Atoms    0 [    UNIT]:    0 atoms
Pseudo Atoms    1 [       C]:    3 atoms
Pseudo Atoms    2 [    H_Z1]:    1 atoms
Pseudo Atoms    3 [       H]:    5 atoms
Pseudo Atoms    4 [     O_a]:    1 atoms
Pseudo Atoms    5 [    O_Z0]:    1 atoms
Pseudo Atoms    6 [      Al]:   12 atoms
Pseudo Atoms    7 [      Si]:  420 atoms
Pseudo Atoms    8 [      Z1]:   12 atoms
Pseudo Atoms    9 [       O]:  852 atoms
Pseudo Atoms   10 [      Z0]:   12 atoms


Current (initial full energy) Energy Status
===========================================================================

Internal energy:
Host stretch energy:                                            0.00000000
Host UreyBradley energy:                                        0.00000000
Host bend energy:                                               0.00000000
Host inversion-bend energy:                                     0.00000000
Host torsion energy:                                            0.00000000
Host improper torsion energy:                                   0.00000000
Host out-of-plane energy:                                       0.00000000
Host stretch/stretch energy:                                    0.00000000
Host bend/bend energy:                                          0.00000000
Host stretch/bend energy:                                       0.00000000
Host stretch/torsion energy:                                    0.00000000
Host bend/torsion energy:                                       0.00000000

Adsorbate stretch energy:                                       0.00000000
Adsorbate UreyBradley energy:                                   0.00000000
Adsorbate bend energy:                                          0.00000000
Adsorbate inversion-bend energy:                                0.00000000
Adsorbate torsion energy:                                       0.00000000
Adsorbate improper torsion energy:                              0.00000000
Adsorbate out-of-plane energy:                                  0.00000000
Adsorbate stretch/stretch energy:                               0.00000000
Adsorbate bend/bend energy:                                     0.00000000
Adsorbate stretch/bend energy:                                  0.00000000
Adsorbate stretch/torsion energy:                               0.00000000
Adsorbate bend/torsion energy:                                  0.00000000
Adsorbate intra VDW energy:                                     0.00000000
Adsorbate intra charge-charge Coulomb energy:                   0.00000000
Adsorbate intra charge-bonddipole Coulomb energy:               0.00000000
Adsorbate intra bonddipole-bonddipole Coulomb energy:           0.00000000

Cation stretch energy:                                          0.00000000
Cation UreyBradley energy:                                      0.00000000
Cation bend energy:                                             0.00000000
Cation inversion-bend energy:                                   0.00000000
Cation torsion energy:                                          0.00000000
Cation improper torsion energy:                                 0.00000000
Cation out-of-plane energy:                                     0.00000000
Cation stretch/stretch energy:                                  0.00000000
Cation bend/bend energy:                                        0.00000000
Cation stretch/bend energy:                                     0.00000000
Cation stretch/torsion energy:                                  0.00000000
Cation bend/torsion energy:                                     0.00000000
Cation intra VDW energy:                                        0.00000000
Cation intra charge-charge Coulomb energy:                      0.00000000
Cation intra charge-bonddipole Coulomb energy:                  0.00000000
Cation intra bonddipole-bonddipole Coulomb energy:              0.00000000

Host/Host energy:                                             0.00000000
	Host/Host VDW energy:                                         0.00000000
	Host/Host Coulomb energy:                                     0.00000000
	Host/Host charge-charge Real energy:                          0.00000000
	Host/Host charge-charge Fourier energy:                       0.00000000
	Host/Host charge-bonddipole Real energy:                      0.00000000
	Host/Host charge-bonddipole Fourier energy:                   0.00000000
	Host/Host bondipole-bonddipole Real energy:                   0.00000000
	Host/Host bondipole-bonddipole Fourier energy:                0.00000000

Host/Adsorbate energy:                                  -151728.83328694
	Host/Adsorbate VDW energy:                                 7041.03480523
	Host/Adsorbate Coulomb energy:                          -158769.86809217
	Host/Adsorbate charge-charge Real energy:                -10285.17002422
	Host/Adsorbate charge-charge Fourier energy:            -148484.69806794
	Host/Adsorbate charge-bonddipole Real energy:                 0.00000000
	Host/Adsorbate charge-bonddipole Fourier energy:              0.00000000
	Host/Adsorbate bondipole-bonddipole Real energy:              0.00000000
	Host/Adsorbate bondipole-bonddipole Fourier energy:           0.00000000

Host/Cation energy:                                           0.00000000
	Host/Cation VDW energy:                                       0.00000000
	Host/Cation Coulomb energy:                                   0.00000000
	Host/Cation charge-charge Real energy:                        0.00000000
	Host/Cation charge-charge Fourier energy:                     0.00000000
	Host/Cation charge-bonddipole Real energy:                    0.00000000
	Host/Cation charge-bonddipole Fourier energy:                 0.00000000
	Host/Cation bondipole-bonddipole Real energy:                 0.00000000
	Host/Cation bondipole-bonddipole Fourier energy:              0.00000000

Adsorbate/Adsorbate energy:                                       -6.16456057
	Adsorbate/Adsorbate VDW energy:                                    0.00000000
	Adsorbate/Adsorbate Coulomb energy:                               -6.16456057
	Adsorbate/Adsorbate charge-charge Real energy:                     0.00000000
	Adsorbate/Adsorbate charge-charge Fourier energy:                 -6.16456057
	Adsorbate/Adsorbate charge-bonddipole Real energy:                 0.00000000
	Adsorbate/Adsorbate charge-bonddipole Fourier energy:              0.00000000
	Adsorbate/Adsorbate bondipole-bonddipole Real energy:              0.00000000
	Adsorbate/Adsorbate bondipole-bonddipole Fourier energy:           0.00000000

Adsorbate/Cation energy:                                           0.00000000
	Adsorbate/Cation VDW energy:                                       0.00000000
	Adsorbate/Cation Coulomb energy:                                   0.00000000
	Adsorbate/Cation charge-charge Real energy:                        0.00000000
	Adsorbate/Cation charge-charge Fourier energy:                     0.00000000
	Adsorbate/Cation charge-bonddipole Real energy:                    0.00000000
	Adsorbate/Cation charge-bonddipole Fourier energy:                 0.00000000
	Adsorbate/Cation bondipole-bonddipole Real energy:                 0.00000000
	Adsorbate/Cation bondipole-bonddipole Fourier energy:              0.00000000

Cation/Cation energy:                                           0.00000000
	Cation/Cation VDW energy:                                       0.00000000
	Cation/Cation Coulomb energy:                                   0.00000000
	Cation/Cation charge-charge Real energy:                        0.00000000
	Cation/Cation charge-charge Fourier energy:                     0.00000000
	Cation/Cation charge-bonddipole Real energy:                    0.00000000
	Cation/Cation charge-bonddipole Fourier energy:                 0.00000000
	Cation/Cation bondipole-bonddipole Real energy:                 0.00000000
	Cation/Cation bondipole-bonddipole Fourier energy:              0.00000000

Polarization energy:
	Host polarization energy:                                     0.00000000
	Adsorbate polarization energy:                                0.00000000
	Cation polarization energy:                                   0.00000000
	Host back-polarization energy:                                     0.00000000
	Adsorbate back-polarization energy:                                0.00000000
	Cation back-polarization energy:                                   0.00000000

Tail-correction energy:                                       0.00000000

Distance constraints energy:                                  0.00000000
Angle constraints energy:                                     0.00000000
Dihedral constraints energy:                                  0.00000000
Inversion-bend constraints energy:                            0.00000000
Out-of-plane distance constraints energy:                     0.00000000
Exclusion constraints energy:                                 0.00000000

===================================================================
Total energy: -151734.997847511084
	Total Van der Waals: 7041.034805
	Total Coulomb: -158776.032653

	Total Polarization: 0.000000







+++++++++++++++++++++++++++++++++++++++++++++++++++++++++++++++++++++++++
Starting simulation
+++++++++++++++++++++++++++++++++++++++++++++++++++++++++++++++++++++++++

Average Properties at Current cycle: 0 out of 1000
========================================================================================

Framework surface area:       0.0000000000 [m^2/g]        0.0000000000 [m^2/cm^3]       0.0000000000 [A^2]
	Framework 0 individual surface area:       0.0000000000 [m^2/g]        0.0000000000 [m^2/cm^3]       0.0000000000 [A^2]
	Cation surface area:                       0.0000000000 [m^2/g]        0.0000000000 [m^2/cm^3]       0.0000000000 [A^2]
Compressibility:       0.0000000000 [-]
Henry coefficients
	Component 0: 0 [mol/kg/Pa] (Rosenbluth factor new: 0 [-])
Energy <U_gh>_1-<U_h>_0 from Widom


Current cycle: 0 out of 1000
========================================================================================================

Net charge: -8.6 (F: -9.6, A: 1, C: 0)
Current Box:  27.65160 -20.73870   0.00000 [A]   Average Box:  27.65160 -20.73870   0.00000 [A]
               0.00000  35.92048   0.00000 [A]                  0.00000  35.92048   0.00000 [A]
               0.00000   0.00000  29.76260 [A]                  0.00000   0.00000  29.76260 [A]
Box-lengths:   27.65160  41.47740  29.76260 [A] Average:  27.65160  41.47740  29.76260 [A]
Box-angles:   90.00000  90.00000 120.00000 [degrees] Average:  90.00000  90.00000 120.00000 [degrees]
Volume: 29561.96443 [A^3] Average Volume: 29561.96443 [A^3]

Loadings per component:
----------------------------------------------------------------------------------------------------------------------------------------------------
Component 0 (propionic_acid), current number of integer/fractional/reaction molecules: 1/0/0 (avg.   1.00000), density:   4.15843 (avg.   4.15843) [kg/m^3]
	absolute adsorption:   0.08333 (avg.   0.08333) [mol/uc],   0.0385287860 (avg.   0.0385287860) [mol/kg],   2.8523245572 (avg.   2.8523245572) [mg/g]
	                       0.8635832753 (avg.   0.8635832753) [cm^3 STP/g],    1.2590257605 (avg.   1.2590257605) [cm^3 STP/cm^3]
	excess adsorption:     0.0833333333 (avg.   0.0833333333) [mol/uc],   0.0385287860 (avg.   0.0385287860) [mol/kg],   2.8523245572 (avg.   2.8523245572) [mg/g]
	                       0.8635832753 (avg.   0.8635832753) [cm^3 STP/g],    1.2590257605 (avg.   1.2590257605) [cm^3 STP/cm^3]
----------------------------------------------------------------------------------------------------------------------------------------------------
Degrees of freedom: 6 0 6 0
Number of Framework-atoms:   1308
Number of Adsorbates:           1 (1 integer, 0 fractional, 0 reaction)
Number of Cations:              0 (0 integer, 0 fractional, 0 reaction)

Current total potential energy:           -151734.9978475111 [K]  (avg.     -151734.9978475111)
	Current Host-Host energy:                     0.0000000000 [K]  (avg.           0.0000000000)
	Current Host-Adsorbate energy:          -151728.8332869382 [K]  (avg.     -151728.8332869382)
	Current Host-Cation energy:                   0.0000000000 [K]  (avg.           0.0000000000)
	Current Adsorbate-Adsorbate energy:          -6.1645605729 [K]  (avg.          -6.1645605729)
	Current Cation-Cation energy:                 0.0000000000 [K]  (avg.           0.0000000000)
	Current Adsorbate-Cation energy:              0.0000000000 [K]  (avg.           0.0000000000)

WARNING: INAPPROPRIATE NUMBER OF UNIT CELLS USED
WARNING: THE SYSTEM HAS A NET CHARGE 
WARNING: REINSERTION MOVE USED ON CHARGED IONS (IF POSSIBLE, CHANGE TO RANDOM TRANSLATION MOVE TO AVOID NUMERICAL PROBLEMS)
WARNING: THERE ARE ATOM-PAIRS WITH NO VDW INTERACTION C-C C-H_Z1 C-H C-O_a C-O_Z0 C-Z1 C-Z0 H_Z1-C H_Z1-H H_Z1-O_a H_Z1-O_Z0 H-C H-H_Z1 H-O_a H-O_Z0 H-Z1 H-Z0 O_a-C O_a-H_Z1 O_a-H O_a-O_Z0 O_a-Z1 O_a-Z0 O_Z0-C O_Z0-H_Z1 O_Z0-H O_Z0-O_a Al-Al Al-Si Al-Z1 Al-O Al-Z0 Si-Al Si-Z1 Si-O Si-Z0 Z1-C Z1-H Z1-O_a Z1-Al Z1-Si Z1-O Z1-Z0 O-Al O-Si O-Z1 O-Z0 Z0-C Z0-H Z0-O_a  (maximum 50 interactions shown)


Current cycle: 1 out of 1000
========================================================================================================

Net charge: -8.6 (F: -9.6, A: 1, C: 0)
Current Box:  27.65160 -20.73870   0.00000 [A]   Average Box:  27.65160 -20.73870   0.00000 [A]
               0.00000  35.92048   0.00000 [A]                  0.00000  35.92048   0.00000 [A]
               0.00000   0.00000  29.76260 [A]                  0.00000   0.00000  29.76260 [A]
Box-lengths:   27.65160  41.47740  29.76260 [A] Average:  27.65160  41.47740  29.76260 [A]
Box-angles:   90.00000  90.00000 120.00000 [degrees] Average:  90.00000  90.00000 120.00000 [degrees]
Volume: 29561.96443 [A^3] Average Volume: 29561.96443 [A^3]

Loadings per component:
----------------------------------------------------------------------------------------------------------------------------------------------------
Component 0 (propionic_acid), current number of integer/fractional/reaction molecules: 1/0/0 (avg.   1.00000), density:   4.15843 (avg.   4.15843) [kg/m^3]
	absolute adsorption:   0.08333 (avg.   0.08333) [mol/uc],   0.0385287860 (avg.   0.0385287860) [mol/kg],   2.8523245572 (avg.   2.8523245572) [mg/g]
	                       0.8635832753 (avg.   0.8635832753) [cm^3 STP/g],    1.2590257605 (avg.   1.2590257605) [cm^3 STP/cm^3]
	excess adsorption:     0.0833333333 (avg.   0.0833333333) [mol/uc],   0.0385287860 (avg.   0.0385287860) [mol/kg],   2.8523245572 (avg.   2.8523245572) [mg/g]
	                       0.8635832753 (avg.   0.8635832753) [cm^3 STP/g],    1.2590257605 (avg.   1.2590257605) [cm^3 STP/cm^3]
----------------------------------------------------------------------------------------------------------------------------------------------------
Degrees of freedom: 6 0 6 0
Number of Framework-atoms:   1308
Number of Adsorbates:           1 (1 integer, 0 fractional, 0 reaction)
Number of Cations:              0 (0 integer, 0 fractional, 0 reaction)

Current total potential energy:           -266636.5153812040 [K]  (avg.     -209185.7566143576)
	Current Host-Host energy:                     0.0000000000 [K]  (avg.           0.0000000000)
	Current Host-Adsorbate energy:          -266616.8858018824 [K]  (avg.     -209172.8595444103)
	Current Host-Cation energy:                   0.0000000000 [K]  (avg.           0.0000000000)
	Current Adsorbate-Adsorbate energy:         -19.6295793216 [K]  (avg.         -12.8970699472)
	Current Cation-Cation energy:                 0.0000000000 [K]  (avg.           0.0000000000)
	Current Adsorbate-Cation energy:              0.0000000000 [K]  (avg.           0.0000000000)

WARNING: INAPPROPRIATE NUMBER OF UNIT CELLS USED
WARNING: THE SYSTEM HAS A NET CHARGE 
WARNING: REINSERTION MOVE USED ON CHARGED IONS (IF POSSIBLE, CHANGE TO RANDOM TRANSLATION MOVE TO AVOID NUMERICAL PROBLEMS)
WARNING: THERE ARE ATOM-PAIRS WITH NO VDW INTERACTION C-C C-H_Z1 C-H C-O_a C-O_Z0 C-Z1 C-Z0 H_Z1-C H_Z1-H H_Z1-O_a H_Z1-O_Z0 H-C H-H_Z1 H-O_a H-O_Z0 H-Z1 H-Z0 O_a-C O_a-H_Z1 O_a-H O_a-O_Z0 O_a-Z1 O_a-Z0 O_Z0-C O_Z0-H_Z1 O_Z0-H O_Z0-O_a Al-Al Al-Si Al-Z1 Al-O Al-Z0 Si-Al Si-Z1 Si-O Si-Z0 Z1-C Z1-H Z1-O_a Z1-Al Z1-Si Z1-O Z1-Z0 O-Al O-Si O-Z1 O-Z0 Z0-C Z0-H Z0-O_a  (maximum 50 interactions shown)


Current cycle: 2 out of 1000
========================================================================================================

Net charge: -8.6 (F: -9.6, A: 1, C: 0)
Current Box:  27.65160 -20.73870   0.00000 [A]   Average Box:  27.65160 -20.73870   0.00000 [A]
               0.00000  35.92048   0.00000 [A]                  0.00000  35.92048   0.00000 [A]
               0.00000   0.00000  29.76260 [A]                  0.00000   0.00000  29.76260 [A]
Box-lengths:   27.65160  41.47740  29.76260 [A] Average:  27.65160  41.47740  29.76260 [A]
Box-angles:   90.00000  90.00000 120.00000 [degrees] Average:  90.00000  90.00000 120.00000 [degrees]
Volume: 29561.96443 [A^3] Average Volume: 29561.96443 [A^3]

Loadings per component:
----------------------------------------------------------------------------------------------------------------------------------------------------
Component 0 (propionic_acid), current number of integer/fractional/reaction molecules: 1/0/0 (avg.   1.00000), density:   4.15843 (avg.   4.15843) [kg/m^3]
	absolute adsorption:   0.08333 (avg.   0.08333) [mol/uc],   0.0385287860 (avg.   0.0385287860) [mol/kg],   2.8523245572 (avg.   2.8523245572) [mg/g]
	                       0.8635832753 (avg.   0.8635832753) [cm^3 STP/g],    1.2590257605 (avg.   1.2590257605) [cm^3 STP/cm^3]
	excess adsorption:     0.0833333333 (avg.   0.0833333333) [mol/uc],   0.0385287860 (avg.   0.0385287860) [mol/kg],   2.8523245572 (avg.   2.8523245572) [mg/g]
	                       0.8635832753 (avg.   0.8635832753) [cm^3 STP/g],    1.2590257605 (avg.   1.2590257605) [cm^3 STP/cm^3]
----------------------------------------------------------------------------------------------------------------------------------------------------
Degrees of freedom: 6 0 6 0
Number of Framework-atoms:   1308
Number of Adsorbates:           1 (1 integer, 0 fractional, 0 reaction)
Number of Cations:              0 (0 integer, 0 fractional, 0 reaction)

Current total potential energy:           -271340.0849311907 [K]  (avg.     -229903.8660533019)
	Current Host-Host energy:                     0.0000000000 [K]  (avg.           0.0000000000)
	Current Host-Adsorbate energy:          -271322.8577231719 [K]  (avg.     -229889.5256039975)
	Current Host-Cation energy:                   0.0000000000 [K]  (avg.           0.0000000000)
	Current Adsorbate-Adsorbate energy:         -17.2272080188 [K]  (avg.         -14.3404493044)
	Current Cation-Cation energy:                 0.0000000000 [K]  (avg.           0.0000000000)
	Current Adsorbate-Cation energy:              0.0000000000 [K]  (avg.           0.0000000000)

WARNING: INAPPROPRIATE NUMBER OF UNIT CELLS USED
WARNING: THE SYSTEM HAS A NET CHARGE 
WARNING: REINSERTION MOVE USED ON CHARGED IONS (IF POSSIBLE, CHANGE TO RANDOM TRANSLATION MOVE TO AVOID NUMERICAL PROBLEMS)
WARNING: THERE ARE ATOM-PAIRS WITH NO VDW INTERACTION C-C C-H_Z1 C-H C-O_a C-O_Z0 C-Z1 C-Z0 H_Z1-C H_Z1-H H_Z1-O_a H_Z1-O_Z0 H-C H-H_Z1 H-O_a H-O_Z0 H-Z1 H-Z0 O_a-C O_a-H_Z1 O_a-H O_a-O_Z0 O_a-Z1 O_a-Z0 O_Z0-C O_Z0-H_Z1 O_Z0-H O_Z0-O_a Al-Al Al-Si Al-Z1 Al-O Al-Z0 Si-Al Si-Z1 Si-O Si-Z0 Z1-C Z1-H Z1-O_a Z1-Al Z1-Si Z1-O Z1-Z0 O-Al O-Si O-Z1 O-Z0 Z0-C Z0-H Z0-O_a  (maximum 50 interactions shown)


Current cycle: 3 out of 1000
========================================================================================================

Net charge: -8.6 (F: -9.6, A: 1, C: 0)
Current Box:  27.65160 -20.73870   0.00000 [A]   Average Box:  27.65160 -20.73870   0.00000 [A]
               0.00000  35.92048   0.00000 [A]                  0.00000  35.92048   0.00000 [A]
               0.00000   0.00000  29.76260 [A]                  0.00000   0.00000  29.76260 [A]
Box-lengths:   27.65160  41.47740  29.76260 [A] Average:  27.65160  41.47740  29.76260 [A]
Box-angles:   90.00000  90.00000 120.00000 [degrees] Average:  90.00000  90.00000 120.00000 [degrees]
Volume: 29561.96443 [A^3] Average Volume: 29561.96443 [A^3]

Loadings per component:
----------------------------------------------------------------------------------------------------------------------------------------------------
Component 0 (propionic_acid), current number of integer/fractional/reaction molecules: 1/0/0 (avg.   1.00000), density:   4.15843 (avg.   4.15843) [kg/m^3]
	absolute adsorption:   0.08333 (avg.   0.08333) [mol/uc],   0.0385287860 (avg.   0.0385287860) [mol/kg],   2.8523245572 (avg.   2.8523245572) [mg/g]
	                       0.8635832753 (avg.   0.8635832753) [cm^3 STP/g],    1.2590257605 (avg.   1.2590257605) [cm^3 STP/cm^3]
	excess adsorption:     0.0833333333 (avg.   0.0833333333) [mol/uc],   0.0385287860 (avg.   0.0385287860) [mol/kg],   2.8523245572 (avg.   2.8523245572) [mg/g]
	                       0.8635832753 (avg.   0.8635832753) [cm^3 STP/g],    1.2590257605 (avg.   1.2590257605) [cm^3 STP/cm^3]
----------------------------------------------------------------------------------------------------------------------------------------------------
Degrees of freedom: 6 0 6 0
Number of Framework-atoms:   1308
Number of Adsorbates:           1 (1 integer, 0 fractional, 0 reaction)
Number of Cations:              0 (0 integer, 0 fractional, 0 reaction)

Current total potential energy:           -350315.4502648336 [K]  (avg.     -260006.7621061849)
	Current Host-Host energy:                     0.0000000000 [K]  (avg.           0.0000000000)
	Current Host-Adsorbate energy:          -350296.9132345305 [K]  (avg.     -259991.3725116307)
	Current Host-Cation energy:                   0.0000000000 [K]  (avg.           0.0000000000)
	Current Adsorbate-Adsorbate energy:         -18.5370303031 [K]  (avg.         -15.3895945541)
	Current Cation-Cation energy:                 0.0000000000 [K]  (avg.           0.0000000000)
	Current Adsorbate-Cation energy:              0.0000000000 [K]  (avg.           0.0000000000)

WARNING: INAPPROPRIATE NUMBER OF UNIT CELLS USED
WARNING: THE SYSTEM HAS A NET CHARGE 
WARNING: REINSERTION MOVE USED ON CHARGED IONS (IF POSSIBLE, CHANGE TO RANDOM TRANSLATION MOVE TO AVOID NUMERICAL PROBLEMS)
WARNING: THERE ARE ATOM-PAIRS WITH NO VDW INTERACTION C-C C-H_Z1 C-H C-O_a C-O_Z0 C-Z1 C-Z0 H_Z1-C H_Z1-H H_Z1-O_a H_Z1-O_Z0 H-C H-H_Z1 H-O_a H-O_Z0 H-Z1 H-Z0 O_a-C O_a-H_Z1 O_a-H O_a-O_Z0 O_a-Z1 O_a-Z0 O_Z0-C O_Z0-H_Z1 O_Z0-H O_Z0-O_a Al-Al Al-Si Al-Z1 Al-O Al-Z0 Si-Al Si-Z1 Si-O Si-Z0 Z1-C Z1-H Z1-O_a Z1-Al Z1-Si Z1-O Z1-Z0 O-Al O-Si O-Z1 O-Z0 Z0-C Z0-H Z0-O_a  (maximum 50 interactions shown)


Current cycle: 4 out of 1000
========================================================================================================

Net charge: -8.6 (F: -9.6, A: 1, C: 0)
Current Box:  27.65160 -20.73870   0.00000 [A]   Average Box:  27.65160 -20.73870   0.00000 [A]
               0.00000  35.92048   0.00000 [A]                  0.00000  35.92048   0.00000 [A]
               0.00000   0.00000  29.76260 [A]                  0.00000   0.00000  29.76260 [A]
Box-lengths:   27.65160  41.47740  29.76260 [A] Average:  27.65160  41.47740  29.76260 [A]
Box-angles:   90.00000  90.00000 120.00000 [degrees] Average:  90.00000  90.00000 120.00000 [degrees]
Volume: 29561.96443 [A^3] Average Volume: 29561.96443 [A^3]

Loadings per component:
----------------------------------------------------------------------------------------------------------------------------------------------------
Component 0 (propionic_acid), current number of integer/fractional/reaction molecules: 1/0/0 (avg.   1.00000), density:   4.15843 (avg.   4.15843) [kg/m^3]
	absolute adsorption:   0.08333 (avg.   0.08333) [mol/uc],   0.0385287860 (avg.   0.0385287860) [mol/kg],   2.8523245572 (avg.   2.8523245572) [mg/g]
	                       0.8635832753 (avg.   0.8635832753) [cm^3 STP/g],    1.2590257605 (avg.   1.2590257605) [cm^3 STP/cm^3]
	excess adsorption:     0.0833333333 (avg.   0.0833333333) [mol/uc],   0.0385287860 (avg.   0.0385287860) [mol/kg],   2.8523245572 (avg.   2.8523245572) [mg/g]
	                       0.8635832753 (avg.   0.8635832753) [cm^3 STP/g],    1.2590257605 (avg.   1.2590257605) [cm^3 STP/cm^3]
----------------------------------------------------------------------------------------------------------------------------------------------------
Degrees of freedom: 6 0 6 0
Number of Framework-atoms:   1308
Number of Adsorbates:           1 (1 integer, 0 fractional, 0 reaction)
Number of Cations:              0 (0 integer, 0 fractional, 0 reaction)

Current total potential energy:           -353758.0888831169 [K]  (avg.     -278757.0274615713)
	Current Host-Host energy:                     0.0000000000 [K]  (avg.           0.0000000000)
	Current Host-Adsorbate energy:          -353742.3844117232 [K]  (avg.     -278741.5748916492)
	Current Host-Cation energy:                   0.0000000000 [K]  (avg.           0.0000000000)
	Current Adsorbate-Adsorbate energy:         -15.7044713937 [K]  (avg.         -15.4525699220)
	Current Cation-Cation energy:                 0.0000000000 [K]  (avg.           0.0000000000)
	Current Adsorbate-Cation energy:              0.0000000000 [K]  (avg.           0.0000000000)

WARNING: INAPPROPRIATE NUMBER OF UNIT CELLS USED
WARNING: THE SYSTEM HAS A NET CHARGE 
WARNING: REINSERTION MOVE USED ON CHARGED IONS (IF POSSIBLE, CHANGE TO RANDOM TRANSLATION MOVE TO AVOID NUMERICAL PROBLEMS)
WARNING: THERE ARE ATOM-PAIRS WITH NO VDW INTERACTION C-C C-H_Z1 C-H C-O_a C-O_Z0 C-Z1 C-Z0 H_Z1-C H_Z1-H H_Z1-O_a H_Z1-O_Z0 H-C H-H_Z1 H-O_a H-O_Z0 H-Z1 H-Z0 O_a-C O_a-H_Z1 O_a-H O_a-O_Z0 O_a-Z1 O_a-Z0 O_Z0-C O_Z0-H_Z1 O_Z0-H O_Z0-O_a Al-Al Al-Si Al-Z1 Al-O Al-Z0 Si-Al Si-Z1 Si-O Si-Z0 Z1-C Z1-H Z1-O_a Z1-Al Z1-Si Z1-O Z1-Z0 O-Al O-Si O-Z1 O-Z0 Z0-C Z0-H Z0-O_a  (maximum 50 interactions shown)


Current cycle: 5 out of 1000
========================================================================================================

Net charge: -8.6 (F: -9.6, A: 1, C: 0)
Current Box:  27.65160 -20.73870   0.00000 [A]   Average Box:  27.65160 -20.73870   0.00000 [A]
               0.00000  35.92048   0.00000 [A]                  0.00000  35.92048   0.00000 [A]
               0.00000   0.00000  29.76260 [A]                  0.00000   0.00000  29.76260 [A]
Box-lengths:   27.65160  41.47740  29.76260 [A] Average:  27.65160  41.47740  29.76260 [A]
Box-angles:   90.00000  90.00000 120.00000 [degrees] Average:  90.00000  90.00000 120.00000 [degrees]
Volume: 29561.96443 [A^3] Average Volume: 29561.96443 [A^3]

Loadings per component:
----------------------------------------------------------------------------------------------------------------------------------------------------
Component 0 (propionic_acid), current number of integer/fractional/reaction molecules: 1/0/0 (avg.   1.00000), density:   4.15843 (avg.   4.15843) [kg/m^3]
	absolute adsorption:   0.08333 (avg.   0.08333) [mol/uc],   0.0385287860 (avg.   0.0385287860) [mol/kg],   2.8523245572 (avg.   2.8523245572) [mg/g]
	                       0.8635832753 (avg.   0.8635832753) [cm^3 STP/g],    1.2590257605 (avg.   1.2590257605) [cm^3 STP/cm^3]
	excess adsorption:     0.0833333333 (avg.   0.0833333333) [mol/uc],   0.0385287860 (avg.   0.0385287860) [mol/kg],   2.8523245572 (avg.   2.8523245572) [mg/g]
	                       0.8635832753 (avg.   0.8635832753) [cm^3 STP/g],    1.2590257605 (avg.   1.2590257605) [cm^3 STP/cm^3]
----------------------------------------------------------------------------------------------------------------------------------------------------
Degrees of freedom: 6 0 6 0
Number of Framework-atoms:   1308
Number of Adsorbates:           1 (1 integer, 0 fractional, 0 reaction)
Number of Cations:              0 (0 integer, 0 fractional, 0 reaction)

Current total potential energy:          -1422789.3068713949 [K]  (avg.     -469429.0740298752)
	Current Host-Host energy:                     0.0000000000 [K]  (avg.           0.0000000000)
	Current Host-Adsorbate energy:         -1422771.7622674932 [K]  (avg.     -469413.2727876232)
	Current Host-Cation energy:                   0.0000000000 [K]  (avg.           0.0000000000)
	Current Adsorbate-Adsorbate energy:         -17.5446039020 [K]  (avg.         -15.8012422520)
	Current Cation-Cation energy:                 0.0000000000 [K]  (avg.           0.0000000000)
	Current Adsorbate-Cation energy:              0.0000000000 [K]  (avg.           0.0000000000)

WARNING: INAPPROPRIATE NUMBER OF UNIT CELLS USED
WARNING: THE SYSTEM HAS A NET CHARGE 
WARNING: REINSERTION MOVE USED ON CHARGED IONS (IF POSSIBLE, CHANGE TO RANDOM TRANSLATION MOVE TO AVOID NUMERICAL PROBLEMS)
WARNING: THERE ARE ATOM-PAIRS WITH NO VDW INTERACTION C-C C-H_Z1 C-H C-O_a C-O_Z0 C-Z1 C-Z0 H_Z1-C H_Z1-H H_Z1-O_a H_Z1-O_Z0 H-C H-H_Z1 H-O_a H-O_Z0 H-Z1 H-Z0 O_a-C O_a-H_Z1 O_a-H O_a-O_Z0 O_a-Z1 O_a-Z0 O_Z0-C O_Z0-H_Z1 O_Z0-H O_Z0-O_a Al-Al Al-Si Al-Z1 Al-O Al-Z0 Si-Al Si-Z1 Si-O Si-Z0 Z1-C Z1-H Z1-O_a Z1-Al Z1-Si Z1-O Z1-Z0 O-Al O-Si O-Z1 O-Z0 Z0-C Z0-H Z0-O_a  (maximum 50 interactions shown)


Current cycle: 6 out of 1000
========================================================================================================

Net charge: -8.6 (F: -9.6, A: 1, C: 0)
Current Box:  27.65160 -20.73870   0.00000 [A]   Average Box:  27.65160 -20.73870   0.00000 [A]
               0.00000  35.92048   0.00000 [A]                  0.00000  35.92048   0.00000 [A]
               0.00000   0.00000  29.76260 [A]                  0.00000   0.00000  29.76260 [A]
Box-lengths:   27.65160  41.47740  29.76260 [A] Average:  27.65160  41.47740  29.76260 [A]
Box-angles:   90.00000  90.00000 120.00000 [degrees] Average:  90.00000  90.00000 120.00000 [degrees]
Volume: 29561.96443 [A^3] Average Volume: 29561.96443 [A^3]

Loadings per component:
----------------------------------------------------------------------------------------------------------------------------------------------------
Component 0 (propionic_acid), current number of integer/fractional/reaction molecules: 1/0/0 (avg.   1.00000), density:   4.15843 (avg.   4.15843) [kg/m^3]
	absolute adsorption:   0.08333 (avg.   0.08333) [mol/uc],   0.0385287860 (avg.   0.0385287860) [mol/kg],   2.8523245572 (avg.   2.8523245572) [mg/g]
	                       0.8635832753 (avg.   0.8635832753) [cm^3 STP/g],    1.2590257605 (avg.   1.2590257605) [cm^3 STP/cm^3]
	excess adsorption:     0.0833333333 (avg.   0.0833333333) [mol/uc],   0.0385287860 (avg.   0.0385287860) [mol/kg],   2.8523245572 (avg.   2.8523245572) [mg/g]
	                       0.8635832753 (avg.   0.8635832753) [cm^3 STP/g],    1.2590257605 (avg.   1.2590257605) [cm^3 STP/cm^3]
----------------------------------------------------------------------------------------------------------------------------------------------------
Degrees of freedom: 6 0 6 0
Number of Framework-atoms:   1308
Number of Adsorbates:           1 (1 integer, 0 fractional, 0 reaction)
Number of Cations:              0 (0 integer, 0 fractional, 0 reaction)

Current total potential energy:          -1844799.7257781911 [K]  (avg.     -665910.5957082062)
	Current Host-Host energy:                     0.0000000000 [K]  (avg.           0.0000000000)
	Current Host-Adsorbate energy:         -1844781.8924672047 [K]  (avg.     -665894.5041704206)
	Current Host-Cation energy:                   0.0000000000 [K]  (avg.           0.0000000000)
	Current Adsorbate-Adsorbate energy:         -17.8333109866 [K]  (avg.         -16.0915377855)
	Current Cation-Cation energy:                 0.0000000000 [K]  (avg.           0.0000000000)
	Current Adsorbate-Cation energy:              0.0000000000 [K]  (avg.           0.0000000000)

WARNING: INAPPROPRIATE NUMBER OF UNIT CELLS USED
WARNING: THE SYSTEM HAS A NET CHARGE 
WARNING: REINSERTION MOVE USED ON CHARGED IONS (IF POSSIBLE, CHANGE TO RANDOM TRANSLATION MOVE TO AVOID NUMERICAL PROBLEMS)
WARNING: THERE ARE ATOM-PAIRS WITH NO VDW INTERACTION C-C C-H_Z1 C-H C-O_a C-O_Z0 C-Z1 C-Z0 H_Z1-C H_Z1-H H_Z1-O_a H_Z1-O_Z0 H-C H-H_Z1 H-O_a H-O_Z0 H-Z1 H-Z0 O_a-C O_a-H_Z1 O_a-H O_a-O_Z0 O_a-Z1 O_a-Z0 O_Z0-C O_Z0-H_Z1 O_Z0-H O_Z0-O_a Al-Al Al-Si Al-Z1 Al-O Al-Z0 Si-Al Si-Z1 Si-O Si-Z0 Z1-C Z1-H Z1-O_a Z1-Al Z1-Si Z1-O Z1-Z0 O-Al O-Si O-Z1 O-Z0 Z0-C Z0-H Z0-O_a  (maximum 50 interactions shown)


Current cycle: 7 out of 1000
========================================================================================================

Net charge: -8.6 (F: -9.6, A: 1, C: 0)
Current Box:  27.65160 -20.73870   0.00000 [A]   Average Box:  27.65160 -20.73870   0.00000 [A]
               0.00000  35.92048   0.00000 [A]                  0.00000  35.92048   0.00000 [A]
               0.00000   0.00000  29.76260 [A]                  0.00000   0.00000  29.76260 [A]
Box-lengths:   27.65160  41.47740  29.76260 [A] Average:  27.65160  41.47740  29.76260 [A]
Box-angles:   90.00000  90.00000 120.00000 [degrees] Average:  90.00000  90.00000 120.00000 [degrees]
Volume: 29561.96443 [A^3] Average Volume: 29561.96443 [A^3]

Loadings per component:
----------------------------------------------------------------------------------------------------------------------------------------------------
Component 0 (propionic_acid), current number of integer/fractional/reaction molecules: 1/0/0 (avg.   1.00000), density:   4.15843 (avg.   4.15843) [kg/m^3]
	absolute adsorption:   0.08333 (avg.   0.08333) [mol/uc],   0.0385287860 (avg.   0.0385287860) [mol/kg],   2.8523245572 (avg.   2.8523245572) [mg/g]
	                       0.8635832753 (avg.   0.8635832753) [cm^3 STP/g],    1.2590257605 (avg.   1.2590257605) [cm^3 STP/cm^3]
	excess adsorption:     0.0833333333 (avg.   0.0833333333) [mol/uc],   0.0385287860 (avg.   0.0385287860) [mol/kg],   2.8523245572 (avg.   2.8523245572) [mg/g]
	                       0.8635832753 (avg.   0.8635832753) [cm^3 STP/g],    1.2590257605 (avg.   1.2590257605) [cm^3 STP/cm^3]
----------------------------------------------------------------------------------------------------------------------------------------------------
Degrees of freedom: 6 0 6 0
Number of Framework-atoms:   1308
Number of Adsorbates:           1 (1 integer, 0 fractional, 0 reaction)
Number of Cations:              0 (0 integer, 0 fractional, 0 reaction)

Current total potential energy:          -2175686.2740871096 [K]  (avg.     -854632.5555055690)
	Current Host-Host energy:                     0.0000000000 [K]  (avg.           0.0000000000)
	Current Host-Adsorbate energy:         -2175669.2656253329 [K]  (avg.     -854616.3493522847)
	Current Host-Cation energy:                   0.0000000000 [K]  (avg.           0.0000000000)
	Current Adsorbate-Adsorbate energy:         -17.0084617772 [K]  (avg.         -16.2061532845)
	Current Cation-Cation energy:                 0.0000000000 [K]  (avg.           0.0000000000)
	Current Adsorbate-Cation energy:              0.0000000000 [K]  (avg.           0.0000000000)

WARNING: INAPPROPRIATE NUMBER OF UNIT CELLS USED
WARNING: THE SYSTEM HAS A NET CHARGE 
WARNING: REINSERTION MOVE USED ON CHARGED IONS (IF POSSIBLE, CHANGE TO RANDOM TRANSLATION MOVE TO AVOID NUMERICAL PROBLEMS)
WARNING: THERE ARE ATOM-PAIRS WITH NO VDW INTERACTION C-C C-H_Z1 C-H C-O_a C-O_Z0 C-Z1 C-Z0 H_Z1-C H_Z1-H H_Z1-O_a H_Z1-O_Z0 H-C H-H_Z1 H-O_a H-O_Z0 H-Z1 H-Z0 O_a-C O_a-H_Z1 O_a-H O_a-O_Z0 O_a-Z1 O_a-Z0 O_Z0-C O_Z0-H_Z1 O_Z0-H O_Z0-O_a Al-Al Al-Si Al-Z1 Al-O Al-Z0 Si-Al Si-Z1 Si-O Si-Z0 Z1-C Z1-H Z1-O_a Z1-Al Z1-Si Z1-O Z1-Z0 O-Al O-Si O-Z1 O-Z0 Z0-C Z0-H Z0-O_a  (maximum 50 interactions shown)


Current cycle: 8 out of 1000
========================================================================================================

Net charge: -8.6 (F: -9.6, A: 1, C: 0)
Current Box:  27.65160 -20.73870   0.00000 [A]   Average Box:  27.65160 -20.73870   0.00000 [A]
               0.00000  35.92048   0.00000 [A]                  0.00000  35.92048   0.00000 [A]
               0.00000   0.00000  29.76260 [A]                  0.00000   0.00000  29.76260 [A]
Box-lengths:   27.65160  41.47740  29.76260 [A] Average:  27.65160  41.47740  29.76260 [A]
Box-angles:   90.00000  90.00000 120.00000 [degrees] Average:  90.00000  90.00000 120.00000 [degrees]
Volume: 29561.96443 [A^3] Average Volume: 29561.96443 [A^3]

Loadings per component:
----------------------------------------------------------------------------------------------------------------------------------------------------
Component 0 (propionic_acid), current number of integer/fractional/reaction molecules: 1/0/0 (avg.   1.00000), density:   4.15843 (avg.   4.15843) [kg/m^3]
	absolute adsorption:   0.08333 (avg.   0.08333) [mol/uc],   0.0385287860 (avg.   0.0385287860) [mol/kg],   2.8523245572 (avg.   2.8523245572) [mg/g]
	                       0.8635832753 (avg.   0.8635832753) [cm^3 STP/g],    1.2590257605 (avg.   1.2590257605) [cm^3 STP/cm^3]
	excess adsorption:     0.0833333333 (avg.   0.0833333333) [mol/uc],   0.0385287860 (avg.   0.0385287860) [mol/kg],   2.8523245572 (avg.   2.8523245572) [mg/g]
	                       0.8635832753 (avg.   0.8635832753) [cm^3 STP/g],    1.2590257605 (avg.   1.2590257605) [cm^3 STP/cm^3]
----------------------------------------------------------------------------------------------------------------------------------------------------
Degrees of freedom: 6 0 6 0
Number of Framework-atoms:   1308
Number of Adsorbates:           1 (1 integer, 0 fractional, 0 reaction)
Number of Cations:              0 (0 integer, 0 fractional, 0 reaction)

Current total potential energy:          -2179839.5203294191 [K]  (avg.    -1001877.7738193301)
	Current Host-Host energy:                     0.0000000000 [K]  (avg.           0.0000000000)
	Current Host-Adsorbate energy:         -2179821.8315251707 [K]  (avg.    -1001861.4029270498)
	Current Host-Cation energy:                   0.0000000000 [K]  (avg.           0.0000000000)
	Current Adsorbate-Adsorbate energy:         -17.6888042485 [K]  (avg.         -16.3708922805)
	Current Cation-Cation energy:                 0.0000000000 [K]  (avg.           0.0000000000)
	Current Adsorbate-Cation energy:              0.0000000000 [K]  (avg.           0.0000000000)

WARNING: INAPPROPRIATE NUMBER OF UNIT CELLS USED
WARNING: THE SYSTEM HAS A NET CHARGE 
WARNING: REINSERTION MOVE USED ON CHARGED IONS (IF POSSIBLE, CHANGE TO RANDOM TRANSLATION MOVE TO AVOID NUMERICAL PROBLEMS)
WARNING: THERE ARE ATOM-PAIRS WITH NO VDW INTERACTION C-C C-H_Z1 C-H C-O_a C-O_Z0 C-Z1 C-Z0 H_Z1-C H_Z1-H H_Z1-O_a H_Z1-O_Z0 H-C H-H_Z1 H-O_a H-O_Z0 H-Z1 H-Z0 O_a-C O_a-H_Z1 O_a-H O_a-O_Z0 O_a-Z1 O_a-Z0 O_Z0-C O_Z0-H_Z1 O_Z0-H O_Z0-O_a Al-Al Al-Si Al-Z1 Al-O Al-Z0 Si-Al Si-Z1 Si-O Si-Z0 Z1-C Z1-H Z1-O_a Z1-Al Z1-Si Z1-O Z1-Z0 O-Al O-Si O-Z1 O-Z0 Z0-C Z0-H Z0-O_a  (maximum 50 interactions shown)


Current cycle: 9 out of 1000
========================================================================================================

Net charge: -8.6 (F: -9.6, A: 1, C: 0)
Current Box:  27.65160 -20.73870   0.00000 [A]   Average Box:  27.65160 -20.73870   0.00000 [A]
               0.00000  35.92048   0.00000 [A]                  0.00000  35.92048   0.00000 [A]
               0.00000   0.00000  29.76260 [A]                  0.00000   0.00000  29.76260 [A]
Box-lengths:   27.65160  41.47740  29.76260 [A] Average:  27.65160  41.47740  29.76260 [A]
Box-angles:   90.00000  90.00000 120.00000 [degrees] Average:  90.00000  90.00000 120.00000 [degrees]
Volume: 29561.96443 [A^3] Average Volume: 29561.96443 [A^3]

Loadings per component:
----------------------------------------------------------------------------------------------------------------------------------------------------
Component 0 (propionic_acid), current number of integer/fractional/reaction molecules: 1/0/0 (avg.   1.00000), density:   4.15843 (avg.   4.15843) [kg/m^3]
	absolute adsorption:   0.08333 (avg.   0.08333) [mol/uc],   0.0385287860 (avg.   0.0385287860) [mol/kg],   2.8523245572 (avg.   2.8523245572) [mg/g]
	                       0.8635832753 (avg.   0.8635832753) [cm^3 STP/g],    1.2590257605 (avg.   1.2590257605) [cm^3 STP/cm^3]
	excess adsorption:     0.0833333333 (avg.   0.0833333333) [mol/uc],   0.0385287860 (avg.   0.0385287860) [mol/kg],   2.8523245572 (avg.   2.8523245572) [mg/g]
	                       0.8635832753 (avg.   0.8635832753) [cm^3 STP/g],    1.2590257605 (avg.   1.2590257605) [cm^3 STP/cm^3]
----------------------------------------------------------------------------------------------------------------------------------------------------
Degrees of freedom: 6 0 6 0
Number of Framework-atoms:   1308
Number of Adsorbates:           1 (1 integer, 0 fractional, 0 reaction)
Number of Cations:              0 (0 integer, 0 fractional, 0 reaction)

Current total potential energy:          -2180753.9272603015 [K]  (avg.    -1119765.3891634271)
	Current Host-Host energy:                     0.0000000000 [K]  (avg.           0.0000000000)
	Current Host-Adsorbate energy:         -2180737.0295431167 [K]  (avg.    -1119748.9655886565)
	Current Host-Cation energy:                   0.0000000000 [K]  (avg.           0.0000000000)
	Current Adsorbate-Adsorbate energy:         -16.8977171858 [K]  (avg.         -16.4235747710)
	Current Cation-Cation energy:                 0.0000000000 [K]  (avg.           0.0000000000)
	Current Adsorbate-Cation energy:              0.0000000000 [K]  (avg.           0.0000000000)

WARNING: INAPPROPRIATE NUMBER OF UNIT CELLS USED
WARNING: THE SYSTEM HAS A NET CHARGE 
WARNING: REINSERTION MOVE USED ON CHARGED IONS (IF POSSIBLE, CHANGE TO RANDOM TRANSLATION MOVE TO AVOID NUMERICAL PROBLEMS)
WARNING: THERE ARE ATOM-PAIRS WITH NO VDW INTERACTION C-C C-H_Z1 C-H C-O_a C-O_Z0 C-Z1 C-Z0 H_Z1-C H_Z1-H H_Z1-O_a H_Z1-O_Z0 H-C H-H_Z1 H-O_a H-O_Z0 H-Z1 H-Z0 O_a-C O_a-H_Z1 O_a-H O_a-O_Z0 O_a-Z1 O_a-Z0 O_Z0-C O_Z0-H_Z1 O_Z0-H O_Z0-O_a Al-Al Al-Si Al-Z1 Al-O Al-Z0 Si-Al Si-Z1 Si-O Si-Z0 Z1-C Z1-H Z1-O_a Z1-Al Z1-Si Z1-O Z1-Z0 O-Al O-Si O-Z1 O-Z0 Z0-C Z0-H Z0-O_a  (maximum 50 interactions shown)


Current cycle: 10 out of 1000
========================================================================================================

Net charge: -8.6 (F: -9.6, A: 1, C: 0)
Current Box:  27.65160 -20.73870   0.00000 [A]   Average Box:  27.65160 -20.73870   0.00000 [A]
               0.00000  35.92048   0.00000 [A]                  0.00000  35.92048   0.00000 [A]
               0.00000   0.00000  29.76260 [A]                  0.00000   0.00000  29.76260 [A]
Box-lengths:   27.65160  41.47740  29.76260 [A] Average:  27.65160  41.47740  29.76260 [A]
Box-angles:   90.00000  90.00000 120.00000 [degrees] Average:  90.00000  90.00000 120.00000 [degrees]
Volume: 29561.96443 [A^3] Average Volume: 29561.96443 [A^3]

Loadings per component:
----------------------------------------------------------------------------------------------------------------------------------------------------
Component 0 (propionic_acid), current number of integer/fractional/reaction molecules: 1/0/0 (avg.   1.00000), density:   4.15843 (avg.   4.15843) [kg/m^3]
	absolute adsorption:   0.08333 (avg.   0.08333) [mol/uc],   0.0385287860 (avg.   0.0385287860) [mol/kg],   2.8523245572 (avg.   2.8523245572) [mg/g]
	                       0.8635832753 (avg.   0.8635832753) [cm^3 STP/g],    1.2590257605 (avg.   1.2590257605) [cm^3 STP/cm^3]
	excess adsorption:     0.0833333333 (avg.   0.0833333333) [mol/uc],   0.0385287860 (avg.   0.0385287860) [mol/kg],   2.8523245572 (avg.   2.8523245572) [mg/g]
	                       0.8635832753 (avg.   0.8635832753) [cm^3 STP/g],    1.2590257605 (avg.   1.2590257605) [cm^3 STP/cm^3]
----------------------------------------------------------------------------------------------------------------------------------------------------
Degrees of freedom: 6 0 6 0
Number of Framework-atoms:   1308
Number of Adsorbates:           1 (1 integer, 0 fractional, 0 reaction)
Number of Cations:              0 (0 integer, 0 fractional, 0 reaction)

Current total potential energy:          -2194708.5195809435 [K]  (avg.    -1217487.4919286559)
	Current Host-Host energy:                     0.0000000000 [K]  (avg.           0.0000000000)
	Current Host-Adsorbate energy:         -2194687.3331013289 [K]  (avg.    -1217470.6353625357)
	Current Host-Cation energy:                   0.0000000000 [K]  (avg.           0.0000000000)
	Current Adsorbate-Adsorbate energy:         -21.1864796151 [K]  (avg.         -16.8565661205)
	Current Cation-Cation energy:                 0.0000000000 [K]  (avg.           0.0000000000)
	Current Adsorbate-Cation energy:              0.0000000000 [K]  (avg.           0.0000000000)

WARNING: INAPPROPRIATE NUMBER OF UNIT CELLS USED
WARNING: THE SYSTEM HAS A NET CHARGE 
WARNING: REINSERTION MOVE USED ON CHARGED IONS (IF POSSIBLE, CHANGE TO RANDOM TRANSLATION MOVE TO AVOID NUMERICAL PROBLEMS)
WARNING: THERE ARE ATOM-PAIRS WITH NO VDW INTERACTION C-C C-H_Z1 C-H C-O_a C-O_Z0 C-Z1 C-Z0 H_Z1-C H_Z1-H H_Z1-O_a H_Z1-O_Z0 H-C H-H_Z1 H-O_a H-O_Z0 H-Z1 H-Z0 O_a-C O_a-H_Z1 O_a-H O_a-O_Z0 O_a-Z1 O_a-Z0 O_Z0-C O_Z0-H_Z1 O_Z0-H O_Z0-O_a Al-Al Al-Si Al-Z1 Al-O Al-Z0 Si-Al Si-Z1 Si-O Si-Z0 Z1-C Z1-H Z1-O_a Z1-Al Z1-Si Z1-O Z1-Z0 O-Al O-Si O-Z1 O-Z0 Z0-C Z0-H Z0-O_a  (maximum 50 interactions shown)


Current cycle: 11 out of 1000
========================================================================================================

Net charge: -8.6 (F: -9.6, A: 1, C: 0)
Current Box:  27.65160 -20.73870   0.00000 [A]   Average Box:  27.65160 -20.73870   0.00000 [A]
               0.00000  35.92048   0.00000 [A]                  0.00000  35.92048   0.00000 [A]
               0.00000   0.00000  29.76260 [A]                  0.00000   0.00000  29.76260 [A]
Box-lengths:   27.65160  41.47740  29.76260 [A] Average:  27.65160  41.47740  29.76260 [A]
Box-angles:   90.00000  90.00000 120.00000 [degrees] Average:  90.00000  90.00000 120.00000 [degrees]
Volume: 29561.96443 [A^3] Average Volume: 29561.96443 [A^3]

Loadings per component:
----------------------------------------------------------------------------------------------------------------------------------------------------
Component 0 (propionic_acid), current number of integer/fractional/reaction molecules: 1/0/0 (avg.   1.00000), density:   4.15843 (avg.   4.15843) [kg/m^3]
	absolute adsorption:   0.08333 (avg.   0.08333) [mol/uc],   0.0385287860 (avg.   0.0385287860) [mol/kg],   2.8523245572 (avg.   2.8523245572) [mg/g]
	                       0.8635832753 (avg.   0.8635832753) [cm^3 STP/g],    1.2590257605 (avg.   1.2590257605) [cm^3 STP/cm^3]
	excess adsorption:     0.0833333333 (avg.   0.0833333333) [mol/uc],   0.0385287860 (avg.   0.0385287860) [mol/kg],   2.8523245572 (avg.   2.8523245572) [mg/g]
	                       0.8635832753 (avg.   0.8635832753) [cm^3 STP/g],    1.2590257605 (avg.   1.2590257605) [cm^3 STP/cm^3]
----------------------------------------------------------------------------------------------------------------------------------------------------
Degrees of freedom: 6 0 6 0
Number of Framework-atoms:   1308
Number of Adsorbates:           1 (1 integer, 0 fractional, 0 reaction)
Number of Cations:              0 (0 integer, 0 fractional, 0 reaction)

Current total potential energy:          -2196015.6571432082 [K]  (avg.    -1299031.5056965353)
	Current Host-Host energy:                     0.0000000000 [K]  (avg.           0.0000000000)
	Current Host-Adsorbate energy:         -2195992.9362259540 [K]  (avg.    -1299014.1604344873)
	Current Host-Cation energy:                   0.0000000000 [K]  (avg.           0.0000000000)
	Current Adsorbate-Adsorbate energy:         -22.7209172544 [K]  (avg.         -17.3452620483)
	Current Cation-Cation energy:                 0.0000000000 [K]  (avg.           0.0000000000)
	Current Adsorbate-Cation energy:              0.0000000000 [K]  (avg.           0.0000000000)

WARNING: INAPPROPRIATE NUMBER OF UNIT CELLS USED
WARNING: THE SYSTEM HAS A NET CHARGE 
WARNING: REINSERTION MOVE USED ON CHARGED IONS (IF POSSIBLE, CHANGE TO RANDOM TRANSLATION MOVE TO AVOID NUMERICAL PROBLEMS)
[...]
	Block[ 2]            0.00000 [K]
	Block[ 3]            0.00000 [K]
	Block[ 4]            0.00000 [K]
	------------------------------------------------------------------------------
	Average              0.00000 [K] +/-            0.00000 [K]

Average Cation Bond-Bond cross term energy:
=================================================
	Block[ 0]            0.00000 [K]
	Block[ 1]            0.00000 [K]
	Block[ 2]            0.00000 [K]
	Block[ 3]            0.00000 [K]
	Block[ 4]            0.00000 [K]
	------------------------------------------------------------------------------
	Average              0.00000 [K] +/-            0.00000 [K]

Average Cation Bend-Bend cross term energy:
===========================================
	Block[ 0]            0.00000 [K]
	Block[ 1]            0.00000 [K]
	Block[ 2]            0.00000 [K]
	Block[ 3]            0.00000 [K]
	Block[ 4]            0.00000 [K]
	------------------------------------------------------------------------------
	Average              0.00000 [K] +/-            0.00000 [K]

Average Cation Bond-Bend cross term energy:
==============================================
	Block[ 0]            0.00000 [K]
	Block[ 1]            0.00000 [K]
	Block[ 2]            0.00000 [K]
	Block[ 3]            0.00000 [K]
	Block[ 4]            0.00000 [K]
	------------------------------------------------------------------------------
	Average              0.00000 [K] +/-            0.00000 [K]

Average Cation Bond-Torsion cross term energy:
==============================================
	Block[ 0]            0.00000 [K]
	Block[ 1]            0.00000 [K]
	Block[ 2]            0.00000 [K]
	Block[ 3]            0.00000 [K]
	Block[ 4]            0.00000 [K]
	------------------------------------------------------------------------------
	Average              0.00000 [K] +/-            0.00000 [K]

Average Cation Bend-Torsion cross term energy:
==============================================
	Block[ 0]            0.00000 [K]
	Block[ 1]            0.00000 [K]
	Block[ 2]            0.00000 [K]
	Block[ 3]            0.00000 [K]
	Block[ 4]            0.00000 [K]
	------------------------------------------------------------------------------
	Average              0.00000 [K] +/-            0.00000 [K]

Average Cation Intra Van der Waals energy:
==========================================
	Block[ 0]            0.00000 [K]
	Block[ 1]            0.00000 [K]
	Block[ 2]            0.00000 [K]
	Block[ 3]            0.00000 [K]
	Block[ 4]            0.00000 [K]
	------------------------------------------------------------------------------
	Average              0.00000 [K] +/-            0.00000 [K]

Average Cation Intra charge-charge Coulomb energy:
====================================
	Block[ 0]            0.00000 [K]
	Block[ 1]            0.00000 [K]
	Block[ 2]            0.00000 [K]
	Block[ 3]            0.00000 [K]
	Block[ 4]            0.00000 [K]
	------------------------------------------------------------------------------
	Average              0.00000 [K] +/-            0.00000 [K]

Average Cation Intra charge-bonddipole Coulomb energy:
====================================
	Block[ 0]            0.00000 [K]
	Block[ 1]            0.00000 [K]
	Block[ 2]            0.00000 [K]
	Block[ 3]            0.00000 [K]
	Block[ 4]            0.00000 [K]
	------------------------------------------------------------------------------
	Average              0.00000 [K] +/-            0.00000 [K]

Average Cation Intra bonddipole-bonddipole Coulomb energy:
====================================
	Block[ 0]            0.00000 [K]
	Block[ 1]            0.00000 [K]
	Block[ 2]            0.00000 [K]
	Block[ 3]            0.00000 [K]
	Block[ 4]            0.00000 [K]
	------------------------------------------------------------------------------
	Average              0.00000 [K] +/-            0.00000 [K]

Average Host-Host energy:
=========================
	Block[ 0] 0.00000            Van der Waals: 0.00000            Coulomb: 0.00000            [K]
	Block[ 1] 0.00000            Van der Waals: 0.00000            Coulomb: 0.00000            [K]
	Block[ 2] 0.00000            Van der Waals: 0.00000            Coulomb: 0.00000            [K]
	Block[ 3] 0.00000            Van der Waals: 0.00000            Coulomb: 0.00000            [K]
	Block[ 4] 0.00000            Van der Waals: 0.00000            Coulomb: 0.00000            [K]
	------------------------------------------------------------------------------
	Average   0.00000            Van der Waals: 0.000000           Coulomb: 0.00000            [K]
	      +/- 0.00000                       +/- 0.000000                +/- 0.00000            [K]

Average Adsorbate-Adsorbate energy:
===================================
	Block[ 0] -24.83550          Van der Waals: 0.00000            Coulomb: -24.83550          [K]
	Block[ 1] -25.69291          Van der Waals: 0.00000            Coulomb: -25.69291          [K]
	Block[ 2] -26.14875          Van der Waals: 0.00000            Coulomb: -26.14875          [K]
	Block[ 3] -26.11641          Van der Waals: 0.00000            Coulomb: -26.11641          [K]
	Block[ 4] -26.17035          Van der Waals: 0.00000            Coulomb: -26.17035          [K]
	------------------------------------------------------------------------------
	Average   -25.79278          Van der Waals: 0.000000           Coulomb: -25.79278          [K]
	      +/- 0.70784                       +/- 0.000000                +/- 0.70784            [K]

Average Cation-Cation energy:
=============================
	Block[ 0] 0.00000            Van der Waals: 0.00000            Coulomb: 0.00000            [K]
	Block[ 1] 0.00000            Van der Waals: 0.00000            Coulomb: 0.00000            [K]
	Block[ 2] 0.00000            Van der Waals: 0.00000            Coulomb: 0.00000            [K]
	Block[ 3] 0.00000            Van der Waals: 0.00000            Coulomb: 0.00000            [K]
	Block[ 4] 0.00000            Van der Waals: 0.00000            Coulomb: 0.00000            [K]
	------------------------------------------------------------------------------
	Average   0.00000            Van der Waals: 0.000000           Coulomb: 0.00000            [K]
	      +/- 0.00000                       +/- 0.000000                +/- 0.00000            [K]

Average Host-Adsorbate energy:
==============================
	Block[ 0] -3622498.21807     Van der Waals: -3466454.08875     Coulomb: -156044.12931      [K]
	Block[ 1] -4137184.94897     Van der Waals: -3981229.06106     Coulomb: -155955.88791      [K]
	Block[ 2] -4147567.93775     Van der Waals: -3991764.50868     Coulomb: -155803.42907      [K]
	Block[ 3] -4149412.81345     Van der Waals: -3993758.40658     Coulomb: -155654.40687      [K]
	Block[ 4] -4150828.17319     Van der Waals: -3995399.42235     Coulomb: -155428.75084      [K]
	------------------------------------------------------------------------------
	Average   -4041498.41828     Van der Waals: -3885721.097485    Coulomb: -155777.32080      [K]
	      +/- 290862.23718                  +/- 291052.179306           +/- 304.32576          [K]

Average Host-Cation energy:
===========================
	Block[ 0] 0.00000            Van der Waals: 0.00000            Coulomb: 0.00000            [K]
	Block[ 1] 0.00000            Van der Waals: 0.00000            Coulomb: 0.00000            [K]
	Block[ 2] 0.00000            Van der Waals: 0.00000            Coulomb: 0.00000            [K]
	Block[ 3] 0.00000            Van der Waals: 0.00000            Coulomb: 0.00000            [K]
	Block[ 4] 0.00000            Van der Waals: 0.00000            Coulomb: 0.00000            [K]
	------------------------------------------------------------------------------
	Average   0.00000            Van der Waals: 0.000000           Coulomb: 0.00000            [K]
	      +/- 0.00000                       +/- 0.000000                +/- 0.00000            [K]

Average Adsorbate-Cation energy:
================================
	Block[ 0] 0.00000            Van der Waals: 0.00000            Coulomb: 0.00000            [K]
	Block[ 1] 0.00000            Van der Waals: 0.00000            Coulomb: 0.00000            [K]
	Block[ 2] 0.00000            Van der Waals: 0.00000            Coulomb: 0.00000            [K]
	Block[ 3] 0.00000            Van der Waals: 0.00000            Coulomb: 0.00000            [K]
	Block[ 4] 0.00000            Van der Waals: 0.00000            Coulomb: 0.00000            [K]
	------------------------------------------------------------------------------
	Average   0.00000            Van der Waals: 0.000000           Coulomb: 0.00000            [K]
	      +/- 0.00000                       +/- 0.000000                +/- 0.00000            [K]

Host polarization energy:
=======================
	Block[ 0]            0.00000 [K]
	Block[ 1]            0.00000 [K]
	Block[ 2]            0.00000 [K]
	Block[ 3]            0.00000 [K]
	Block[ 4]            0.00000 [K]
	------------------------------------------------------------------------------
	Average              0.00000 [K] +/-            0.00000 [K]

Adsorbate polarization energy:
=======================
	Block[ 0]            0.00000 [K]
	Block[ 1]            0.00000 [K]
	Block[ 2]            0.00000 [K]
	Block[ 3]            0.00000 [K]
	Block[ 4]            0.00000 [K]
	------------------------------------------------------------------------------
	Average              0.00000 [K] +/-            0.00000 [K]

Cation polarization energy:
=======================
	Block[ 0]            0.00000 [K]
	Block[ 1]            0.00000 [K]
	Block[ 2]            0.00000 [K]
	Block[ 3]            0.00000 [K]
	Block[ 4]            0.00000 [K]
	------------------------------------------------------------------------------
	Average              0.00000 [K] +/-            0.00000 [K]

Host back-polarization energy:
=======================
	Block[ 0]            0.00000 [K]
	Block[ 1]            0.00000 [K]
	Block[ 2]            0.00000 [K]
	Block[ 3]            0.00000 [K]
	Block[ 4]            0.00000 [K]
	------------------------------------------------------------------------------
	Average              0.00000 [K] +/-            0.00000 [K]

Adsorbate back-polarization energy:
=======================
	Block[ 0]            0.00000 [K]
	Block[ 1]            0.00000 [K]
	Block[ 2]            0.00000 [K]
	Block[ 3]            0.00000 [K]
	Block[ 4]            0.00000 [K]
	------------------------------------------------------------------------------
	Average              0.00000 [K] +/-            0.00000 [K]

Cation back-polarization energy:
=======================
	Block[ 0]            0.00000 [K]
	Block[ 1]            0.00000 [K]
	Block[ 2]            0.00000 [K]
	Block[ 3]            0.00000 [K]
	Block[ 4]            0.00000 [K]
	------------------------------------------------------------------------------
	Average              0.00000 [K] +/-            0.00000 [K]

Tail-correction energy:
=======================
	Block[ 0]            0.00000 [K]
	Block[ 1]            0.00000 [K]
	Block[ 2]            0.00000 [K]
	Block[ 3]            0.00000 [K]
	Block[ 4]            0.00000 [K]
	------------------------------------------------------------------------------
	Average              0.00000 [K] +/-            0.00000 [K]

Distance-constraints energy:
=======================
	Block[ 0]            0.00000 [K]
	Block[ 1]            0.00000 [K]
	Block[ 2]            0.00000 [K]
	Block[ 3]            0.00000 [K]
	Block[ 4]            0.00000 [K]
	------------------------------------------------------------------------------
	Average              0.00000 [K] +/-            0.00000 [K]

Angle-constraints energy:
=======================
	Block[ 0]            0.00000 [K]
	Block[ 1]            0.00000 [K]
	Block[ 2]            0.00000 [K]
	Block[ 3]            0.00000 [K]
	Block[ 4]            0.00000 [K]
	------------------------------------------------------------------------------
	Average              0.00000 [K] +/-            0.00000 [K]

Dihedral-constraints energy:
=======================
	Block[ 0]            0.00000 [K]
	Block[ 1]            0.00000 [K]
	Block[ 2]            0.00000 [K]
	Block[ 3]            0.00000 [K]
	Block[ 4]            0.00000 [K]
	------------------------------------------------------------------------------
	Average              0.00000 [K] +/-            0.00000 [K]

Inversion-bend constraints energy:
=======================
	Block[ 0]            0.00000 [K]
	Block[ 1]            0.00000 [K]
	Block[ 2]            0.00000 [K]
	Block[ 3]            0.00000 [K]
	Block[ 4]            0.00000 [K]
	------------------------------------------------------------------------------
	Average              0.00000 [K] +/-            0.00000 [K]

Out-of-plane-distance constraints energy:
=======================
	Block[ 0]            0.00000 [K]
	Block[ 1]            0.00000 [K]
	Block[ 2]            0.00000 [K]
	Block[ 3]            0.00000 [K]
	Block[ 4]            0.00000 [K]
	------------------------------------------------------------------------------
	Average              0.00000 [K] +/-            0.00000 [K]

Exclusion-constraints energy:
=======================
	Block[ 0]            0.00000 [K]
	Block[ 1]            0.00000 [K]
	Block[ 2]            0.00000 [K]
	Block[ 3]            0.00000 [K]
	Block[ 4]            0.00000 [K]
	------------------------------------------------------------------------------
	Average              0.00000 [K] +/-            0.00000 [K]

Total energy:
=============
	Block[ 0]     -3622523.05357 [K]
	Block[ 1]     -4137210.64188 [K]
	Block[ 2]     -4147594.08650 [K]
	Block[ 3]     -4149438.92985 [K]
	Block[ 4]     -4150854.34354 [K]
	------------------------------------------------------------------------------
	Average       -4041524.21107 [K] +/-       290862.90683 [K]

Number of molecules:
====================

Component 0 [propionic_acid]
-------------------------------------------------------------
	Block[ 0] 1.00000            [-]
	Block[ 1] 1.00000            [-]
	Block[ 2] 1.00000            [-]
	Block[ 3] 1.00000            [-]
	Block[ 4] 1.00000            [-]
	------------------------------------------------------------------------------
	Average loading absolute                              1.0000000000 +/-       0.0000000219 [-]
	Average loading absolute [molecules/unit cell]        0.0833333333 +/-       0.0000000018 [-]
	Average loading absolute [mol/kg framework]                  0.0385287860 +/-       0.0000000008 [-]
	Average loading absolute [milligram/gram framework]          2.8523245572 +/-       0.0000000626 [-]
	Average loading absolute [cm^3 (STP)/gr framework]           0.8635832753 +/-       0.0000000189 [-]
	Average loading absolute [cm^3 (STP)/cm^3 framework]         1.2590257605 +/-       0.0000000276 [-]

	Block[ 0] 1.00000            [-]
	Block[ 1] 1.00000            [-]
	Block[ 2] 1.00000            [-]
	Block[ 3] 1.00000            [-]
	Block[ 4] 1.00000            [-]
	------------------------------------------------------------------------------
	Average loading excess                              1.0000000000 +/-       0.0000000219 [-]
	Average loading excess [molecules/unit cell]        0.0833333333 +/-       0.0000000018 [-]
	Average loading excess [mol/kg framework]                    0.0385287860 +/-       0.0000000008 [-]
	Average loading excess [milligram/gram framework]            2.8523245572 +/-       0.0000000626 [-]
	Average loading excess [cm^3 (STP)/gr framework]             0.8635832753 +/-       0.0000000189 [-]
	Average loading excess [cm^3 (STP)/cm^3 framework]           1.2590257605 +/-       0.0000000276 [-]


Average Widom Rosenbluth factor:
================================
	Block[ 0] 0 [-]
	Block[ 1] 0 [-]
	Block[ 2] 0 [-]
	Block[ 3] 0 [-]
	Block[ 4] 0 [-]
	------------------------------------------------------------------------------
	[propionic_acid] Average Widom Rosenbluth-weight:   0 +/- 0.000000 [-]

Average Widom chemical potential:
=================================
	Block[ 0] 0 [-]
	Block[ 1] 0 [-]
	Block[ 2] 0 [-]
	Block[ 3] 0 [-]
	Block[ 4] 0 [-]
	------------------------------------------------------------------------------
	[propionic_acid] Average chemical potential:   0 +/- 0.000000 [K]

Average Widom Ideal-gas contribution:
=====================================
	Block[ 0] 0 [-]
	Block[ 1] 0 [-]
	Block[ 2] 0 [-]
	Block[ 3] 0 [-]
	Block[ 4] 0 [-]
	------------------------------------------------------------------------------
	[propionic_acid] Average Widom Ideal-gas chemical potential:   0 +/- 0.000000 [-]

Average Widom excess contribution:
==================================
	Block[ 0] 0 [-]
	Block[ 1] 0 [-]
	Block[ 2] 0 [-]
	Block[ 3] 0 [-]
	Block[ 4] 0 [-]
	------------------------------------------------------------------------------
	[propionic_acid] Average Widom excess chemical potential:   0 +/- 0.000000 [-]

Average Gibbs Widom Rosenbluth factor:
======================================
	Block[ 0] 0 [-]
	Block[ 1] 0 [-]
	Block[ 2] 0 [-]
	Block[ 3] 0 [-]
	Block[ 4] 0 [-]
	------------------------------------------------------------------------------
	[propionic_acid] Average Gibbs Widom Rosenbluth-weight:   0 +/- 0.000000 [-]

Average Gibbs Widom chemical potential:
=======================================
	Block[ 0] 0 [-]
	Block[ 1] 0 [-]
	Block[ 2] 0 [-]
	Block[ 3] 0 [-]
	Block[ 4] 0 [-]
	------------------------------------------------------------------------------
	[propionic_acid] Average Gibbs chemical potential:   0 +/- 0.000000 [K]

Average osmostat calibration for alchemical transformation:
=======================================
	Block[ 0] 0 [-]
	Block[ 1] 0 [-]
	Block[ 2] 0 [-]
	Block[ 3] 0 [-]
	Block[ 4] 0 [-]
	------------------------------------------------------------------------------
	Average osmostat calibration for alchemical transformation:   0 +/- 0.000000 [K]
	Average osmostat calibration for alchemical transformation:   0 +/- 0.000000 [kJ/mol]

Average Gibbs Widom Ideal-gas contribution:
===========================================
	Block[ 0] 0 [-]
	Block[ 1] 0 [-]
	Block[ 2] 0 [-]
	Block[ 3] 0 [-]
	Block[ 4] 0 [-]
	------------------------------------------------------------------------------
	[propionic_acid] Average Gibbs Ideal-gas chemical potential:   0 +/- 0.000000 [-]

Average Gibbs Widom excess contribution:
===========================================
	Block[ 0] 0 [-]
	Block[ 1] 0 [-]
	Block[ 2] 0 [-]
	Block[ 3] 0 [-]
	Block[ 4] 0 [-]
	------------------------------------------------------------------------------
	[propionic_acid] Average Gibbs excess chemical potential:   0 +/- 0.000000 [-]

Average Henry coefficient:
==========================
	Block[ 0] 0 [mol/kg/Pa]
	Block[ 1] 0 [mol/kg/Pa]
	Block[ 2] 0 [mol/kg/Pa]
	Block[ 3] 0 [mol/kg/Pa]
	Block[ 4] 0 [mol/kg/Pa]
	------------------------------------------------------------------------------
	[propionic_acid] Average Henry coefficient:  0 +/- 0 [mol/kg/Pa]

Average adsorption energy <U_gh>_1-<U_h>_0 obtained from Widom-insertion:
(Note: the total heat of adsorption is dH=<U_gh>_1-<U_h>_0 - <U_g> - RT)
=========================================================================

Simulation finished,  4 warnings
WARNING: INAPPROPRIATE NUMBER OF UNIT CELLS USED
WARNING: THE SYSTEM HAS A NET CHARGE 
WARNING: REINSERTION MOVE USED ON CHARGED IONS (IF POSSIBLE, CHANGE TO RANDOM TRANSLATION MOVE TO AVOID NUMERICAL PROBLEMS)
WARNING: THERE ARE ATOM-PAIRS WITH NO VDW INTERACTION C-C C-H_Z1 C-H C-O_a C-O_Z0 C-Z1 C-Z0 H_Z1-C H_Z1-H H_Z1-O_a H_Z1-O_Z0 H-C H-H_Z1 H-O_a H-O_Z0 H-Z1 H-Z0 O_a-C O_a-H_Z1 O_a-H O_a-O_Z0 O_a-Z1 O_a-Z0 O_Z0-C O_Z0-H_Z1 O_Z0-H O_Z0-O_a Al-Al Al-Si Al-Z1 Al-O Al-Z0 Si-Al Si-Z1 Si-O Si-Z0 Z1-C Z1-H Z1-O_a Z1-Al Z1-Si Z1-O Z1-Z0 O-Al O-Si O-Z1 O-Z0 Z0-C Z0-H Z0-O_a  (maximum 50 interactions shown)


Fri Sep 13 12:08:03 2024
Simulation finished on Friday, September 13.
The end time was 12:08 PM.

